 Entering Gaussian System, Link 0=g16
 Input=vinyl-alcohol-500.com
 Output=vinyl-alcohol-500.log
 Initial command:
 /home/temp-soft/gaussian//g16/l1.exe "./Gau-15570.inp" -scrdir="./"
 Entering Link 1 = /home/temp-soft/gaussian//g16/l1.exe PID=     15571.
  
 Copyright (c) 1988-2017, Gaussian, Inc.  All Rights Reserved.
  
 This is part of the Gaussian(R) 16 program.  It is based on
 the Gaussian(R) 09 system (copyright 2009, Gaussian, Inc.),
 the Gaussian(R) 03 system (copyright 2003, Gaussian, Inc.),
 the Gaussian(R) 98 system (copyright 1998, Gaussian, Inc.),
 the Gaussian(R) 94 system (copyright 1995, Gaussian, Inc.),
 the Gaussian 92(TM) system (copyright 1992, Gaussian, Inc.),
 the Gaussian 90(TM) system (copyright 1990, Gaussian, Inc.),
 the Gaussian 88(TM) system (copyright 1988, Gaussian, Inc.),
 the Gaussian 86(TM) system (copyright 1986, Carnegie Mellon
 University), and the Gaussian 82(TM) system (copyright 1983,
 Carnegie Mellon University). Gaussian is a federally registered
 trademark of Gaussian, Inc.
  
 This software contains proprietary and confidential information,
 including trade secrets, belonging to Gaussian, Inc.
  
 This software is provided under written license and may be
 used, copied, transmitted, or stored only in accord with that
 written license.
  
 The following legend is applicable only to US Government
 contracts under FAR:
  
                    RESTRICTED RIGHTS LEGEND
  
 Use, reproduction and disclosure by the US Government is
 subject to restrictions as set forth in subparagraphs (a)
 and (c) of the Commercial Computer Software - Restricted
 Rights clause in FAR 52.227-19.
  
 Gaussian, Inc.
 340 Quinnipiac St., Bldg. 40, Wallingford CT 06492
  
  
 ---------------------------------------------------------------
 Warning -- This program may not be used in any manner that
 competes with the business of Gaussian, Inc. or will provide
 assistance to any competitor of Gaussian, Inc.  The licensee
 of this program is prohibited from giving any competitor of
 Gaussian, Inc. access to this program.  By using this program,
 the user acknowledges that Gaussian, Inc. is engaged in the
 business of creating and licensing software in the field of
 computational chemistry and represents and warrants to the
 licensee that it is not a competitor of Gaussian, Inc. and that
 it will not use this program in any manner prohibited above.
 ---------------------------------------------------------------
  

 Cite this work as:
 Gaussian 16, Revision B.01,
 M. J. Frisch, G. W. Trucks, H. B. Schlegel, G. E. Scuseria, 
 M. A. Robb, J. R. Cheeseman, G. Scalmani, V. Barone, 
 G. A. Petersson, H. Nakatsuji, X. Li, M. Caricato, A. V. Marenich, 
 J. Bloino, B. G. Janesko, R. Gomperts, B. Mennucci, H. P. Hratchian, 
 J. V. Ortiz, A. F. Izmaylov, J. L. Sonnenberg, D. Williams-Young, 
 F. Ding, F. Lipparini, F. Egidi, J. Goings, B. Peng, A. Petrone, 
 T. Henderson, D. Ranasinghe, V. G. Zakrzewski, J. Gao, N. Rega, 
 G. Zheng, W. Liang, M. Hada, M. Ehara, K. Toyota, R. Fukuda, 
 J. Hasegawa, M. Ishida, T. Nakajima, Y. Honda, O. Kitao, H. Nakai, 
 T. Vreven, K. Throssell, J. A. Montgomery, Jr., J. E. Peralta, 
 F. Ogliaro, M. J. Bearpark, J. J. Heyd, E. N. Brothers, K. N. Kudin, 
 V. N. Staroverov, T. A. Keith, R. Kobayashi, J. Normand, 
 K. Raghavachari, A. P. Rendell, J. C. Burant, S. S. Iyengar, 
 J. Tomasi, M. Cossi, J. M. Millam, M. Klene, C. Adamo, R. Cammi, 
 J. W. Ochterski, R. L. Martin, K. Morokuma, O. Farkas, 
 J. B. Foresman, and D. J. Fox, Gaussian, Inc., Wallingford CT, 2016.
 
 ******************************************
 Gaussian 16:  EM64L-G16RevB.01 20-Dec-2017
                12-Feb-2024 
 ******************************************
 %chk=vinyl-alcohol.chk
 %nproc=4
 Will use up to    4 processors via shared memory.
 --------------------------------------------------------------
 # opt Temperature=500.0 # freq # hf/6-31g(d) geom=connectivity
 --------------------------------------------------------------
 1/18=20,19=15,38=1,57=2,112=500000/1,3;
 2/9=110,12=2,17=6,18=5,40=1/2;
 3/5=1,6=6,7=1,11=9,25=1,30=1,71=1/1,2,3;
 4//1;
 5/5=2,38=5/2;
 6/7=2,8=2,9=2,10=2,28=1/1;
 7//1,2,3,16;
 1/18=20,19=15/3(2);
 2/9=110/2;
 99//99;
 2/9=110/2;
 3/5=1,6=6,7=1,11=9,25=1,30=1,71=1/1,2,3;
 4/5=5,16=3,69=1/1;
 5/5=2,38=5/2;
 7//1,2,3,16;
 1/18=20,19=15/3(-5);
 2/9=110/2;
 6/7=2,8=2,9=2,10=2,19=2,28=1/1;
 99/9=1/99;
 -------------------
 Title Card Required
 -------------------
 Symbolic Z-matrix:
 Charge =  0 Multiplicity = 1
 C
 C                    1     1.32592 
 O                    2     1.43     1     122.71798 
 H                    3     0.96     2     109.5    1    D1       0
 H                    1     1.09827  2     122.71594  3     0.00161  0
 H                    1     1.09826  2     122.71798  5     179.99864  0
 H                    2     1.09827  1     122.71594  6     0.       0
       Variables:
  D1                 -180.                       
 

 GradGradGradGradGradGradGradGradGradGradGradGradGradGradGradGradGradGrad
 Berny optimization.
 Initialization pass.
                           ----------------------------
                           !    Initial Parameters    !
                           ! (Angstroms and Degrees)  !
 --------------------------                            --------------------------
 ! Name  Definition              Value          Derivative Info.                !
 --------------------------------------------------------------------------------
 ! R1    R(1,2)                  1.3259         estimate D2E/DX2                !
 ! R2    R(1,5)                  1.0983         estimate D2E/DX2                !
 ! R3    R(1,6)                  1.0983         estimate D2E/DX2                !
 ! R4    R(2,3)                  1.43           estimate D2E/DX2                !
 ! R5    R(2,7)                  1.0983         estimate D2E/DX2                !
 ! R6    R(3,4)                  0.96           estimate D2E/DX2                !
 ! A1    A(2,1,5)              122.7159         estimate D2E/DX2                !
 ! A2    A(2,1,6)              122.718          estimate D2E/DX2                !
 ! A3    A(5,1,6)              114.5661         estimate D2E/DX2                !
 ! A4    A(1,2,3)              122.718          estimate D2E/DX2                !
 ! A5    A(1,2,7)              122.7159         estimate D2E/DX2                !
 ! A6    A(3,2,7)              114.5661         estimate D2E/DX2                !
 ! A7    A(2,3,4)              109.5            estimate D2E/DX2                !
 ! D1    D(5,1,2,3)              0.0016         estimate D2E/DX2                !
 ! D2    D(5,1,2,7)           -179.9986         estimate D2E/DX2                !
 ! D3    D(6,1,2,3)           -179.9998         estimate D2E/DX2                !
 ! D4    D(6,1,2,7)              0.0            estimate D2E/DX2                !
 ! D5    D(1,2,3,4)            180.0            estimate D2E/DX2                !
 ! D6    D(7,2,3,4)              0.0002         estimate D2E/DX2                !
 --------------------------------------------------------------------------------
 Trust Radius=3.00D-01 FncErr=1.00D-07 GrdErr=1.00D-07 EigMax=2.50D+02 EigMin=1.00D-04
 Number of steps in this run=     29 maximum allowed number of steps=    100.
 GradGradGradGradGradGradGradGradGradGradGradGradGradGradGradGradGradGrad

                          Input orientation:                          
 ---------------------------------------------------------------------
 Center     Atomic      Atomic             Coordinates (Angstroms)
 Number     Number       Type             X           Y           Z
 ---------------------------------------------------------------------
      1          6           0        0.000000    0.000000    0.000000
      2          6           0        0.000000    0.000000    1.325916
      3          8           0        1.203118    0.000000    2.098837
      4          1           0        0.983608    0.000000    3.033404
      5          1           0        0.924038   -0.000026   -0.593585
      6          1           0       -0.924014    0.000004   -0.593616
      7          1           0       -0.924038    0.000004    1.919501
 ---------------------------------------------------------------------
                    Distance matrix (angstroms):
                    1          2          3          4          5
     1  C    0.000000
     2  C    1.325916   0.000000
     3  O    2.419217   1.430000   0.000000
     4  H    3.188891   1.970533   0.960000   0.000000
     5  H    1.098267   2.130336   2.706847   3.627478   0.000000
     6  H    1.098263   2.130353   3.431326   4.098084   1.848052
     7  H    2.130336   1.098267   2.134702   2.209048   3.119453
                    6          7
     6  H    0.000000
     7  H    2.513117   0.000000
 Stoichiometry    C2H4O
 Framework group  C1[X(C2H4O)]
 Deg. of freedom    15
 Full point group                 C1      NOp   1
 Largest Abelian subgroup         C1      NOp   1
 Largest concise Abelian subgroup C1      NOp   1
                         Standard orientation:                         
 ---------------------------------------------------------------------
 Center     Atomic      Atomic             Coordinates (Angstroms)
 Number     Number       Type             X           Y           Z
 ---------------------------------------------------------------------
      1          6           0       -1.241446   -0.181591   -0.000003
      2          6           0       -0.060917    0.422068    0.000002
      3          8           0        1.175005   -0.297235   -0.000002
      4          1           0        1.907159    0.323693    0.000003
      5          1           0       -1.349251   -1.274554    0.000016
      6          1           0       -2.190655    0.370845   -0.000004
      7          1           0        0.046888    1.515031    0.000005
 ---------------------------------------------------------------------
 Rotational constants (GHZ):          62.6574074           9.9169170           8.5618201
 Standard basis: 6-31G(d) (6D, 7F)
 There are    53 symmetry adapted cartesian basis functions of A   symmetry.
 There are    53 symmetry adapted basis functions of A   symmetry.
    53 basis functions,   100 primitive gaussians,    53 cartesian basis functions
    12 alpha electrons       12 beta electrons
       nuclear repulsion energy        68.7526357498 Hartrees.
 NAtoms=    7 NActive=    7 NUniq=    7 SFac= 1.00D+00 NAtFMM=   60 NAOKFM=F Big=F
 Integral buffers will be    131072 words long.
 Raffenetti 1 integral format.
 Two-electron integral symmetry is turned on.
 One-electron integrals computed using PRISM.
 NBasis=    53 RedAO= T EigKep=  5.33D-03  NBF=    53
 NBsUse=    53 1.00D-06 EigRej= -1.00D+00 NBFU=    53
 ExpMin= 1.61D-01 ExpMax= 5.48D+03 ExpMxC= 8.25D+02 IAcc=3 IRadAn=         5 AccDes= 0.00D+00
 Harris functional with IExCor=  205 and IRadAn=       5 diagonalized for initial guess.
 HarFok:  IExCor=  205 AccDes= 0.00D+00 IRadAn=         5 IDoV= 1 UseB2=F ITyADJ=14
 ICtDFT=  3500011 ScaDFX=  1.000000  1.000000  1.000000  1.000000
 FoFCou: FMM=F IPFlag=           0 FMFlag=      100000 FMFlg1=           0
         NFxFlg=           0 DoJE=T BraDBF=F KetDBF=T FulRan=T
         wScrn=  0.000000 ICntrl=       500 IOpCl=  0 I1Cent=   200000004 NGrid=           0
         NMat0=    1 NMatS0=      1 NMatT0=    0 NMatD0=    1 NMtDS0=    0 NMtDT0=    0
 Petite list used in FoFCou.
 Keep R1 ints in memory in canonical form, NReq=1865997.
 Requested convergence on RMS density matrix=1.00D-08 within 128 cycles.
 Requested convergence on MAX density matrix=1.00D-06.
 Requested convergence on             energy=1.00D-06.
 No special actions if energy rises.
 SCF Done:  E(RHF) =  -152.879015034     A.U. after   12 cycles
            NFock= 12  Conv=0.72D-08     -V/T= 2.0037

 **********************************************************************

            Population analysis using the SCF Density.

 **********************************************************************

 Orbital symmetries:
       Occupied  (A) (A) (A) (A) (A) (A) (A) (A) (A) (A) (A) (A)
       Virtual   (A) (A) (A) (A) (A) (A) (A) (A) (A) (A) (A) (A)
                 (A) (A) (A) (A) (A) (A) (A) (A) (A) (A) (A) (A)
                 (A) (A) (A) (A) (A) (A) (A) (A) (A) (A) (A) (A)
                 (A) (A) (A) (A) (A)
 The electronic state is 1-A.
 Alpha  occ. eigenvalues --  -20.58495 -11.30109 -11.22062  -1.36671  -1.02103
 Alpha  occ. eigenvalues --   -0.78530  -0.71652  -0.61246  -0.56589  -0.55143
 Alpha  occ. eigenvalues --   -0.50767  -0.34881
 Alpha virt. eigenvalues --    0.19701   0.21183   0.28411   0.29753   0.32202
 Alpha virt. eigenvalues --    0.46073   0.51014   0.70433   0.76897   0.80958
 Alpha virt. eigenvalues --    0.82814   0.88171   0.93857   1.06658   1.11394
 Alpha virt. eigenvalues --    1.14249   1.19824   1.21975   1.22490   1.33352
 Alpha virt. eigenvalues --    1.43473   1.48946   1.66448   1.71074   1.74185
 Alpha virt. eigenvalues --    2.00417   2.06995   2.10284   2.19360   2.25811
 Alpha virt. eigenvalues --    2.48638   2.54536   2.55950   2.80806   2.80823
 Alpha virt. eigenvalues --    2.98583   3.14248   3.30212   4.14013   4.52655
 Alpha virt. eigenvalues --    4.71446
          Condensed to atoms (all electrons):
               1          2          3          4          5          6
     1  C    5.099050   0.666328  -0.046559   0.004067   0.387436   0.388175
     2  C    0.666328   4.602776   0.249700  -0.018324  -0.033737  -0.033009
     3  O   -0.046559   0.249700   8.309720   0.258664  -0.000760   0.001570
     4  H    0.004067  -0.018324   0.258664   0.309878  -0.000002  -0.000133
     5  H    0.387436  -0.033737  -0.000760  -0.000002   0.476546  -0.025185
     6  H    0.388175  -0.033009   0.001570  -0.000133  -0.025185   0.487263
     7  H   -0.047790   0.388835  -0.038338  -0.004528   0.002937  -0.001041
               7
     1  C   -0.047790
     2  C    0.388835
     3  O   -0.038338
     4  H   -0.004528
     5  H    0.002937
     6  H   -0.001041
     7  H    0.518154
 Mulliken charges:
               1
     1  C   -0.450707
     2  C    0.177431
     3  O   -0.733997
     4  H    0.450378
     5  H    0.192766
     6  H    0.182359
     7  H    0.181770
 Sum of Mulliken charges =  -0.00000
 Mulliken charges with hydrogens summed into heavy atoms:
               1
     1  C   -0.075582
     2  C    0.359201
     3  O   -0.283619
 Electronic spatial extent (au):  <R**2>=            169.9806
 Charge=             -0.0000 electrons
 Dipole moment (field-independent basis, Debye):
    X=              0.3543    Y=              1.9978    Z=              0.0000  Tot=              2.0289
 Quadrupole moment (field-independent basis, Debye-Ang):
   XX=            -14.5075   YY=            -17.0967   ZZ=            -20.7047
   XY=              2.9743   XZ=              0.0000   YZ=             -0.0000
 Traceless Quadrupole moment (field-independent basis, Debye-Ang):
   XX=              2.9288   YY=              0.3396   ZZ=             -3.2684
   XY=              2.9743   XZ=              0.0000   YZ=             -0.0000
 Octapole moment (field-independent basis, Debye-Ang**2):
  XXX=             12.1684  YYY=              0.5916  ZZZ=              0.0000  XYY=              1.0880
  XXY=              4.1207  XXZ=              0.0001  XZZ=              3.4268  YZZ=             -0.0710
  YYZ=              0.0001  XYZ=              0.0000
 Hexadecapole moment (field-independent basis, Debye-Ang**3):
 XXXX=           -118.9109 YYYY=            -38.9487 ZZZZ=            -19.9256 XXXY=              4.9747
 XXXZ=              0.0000 YYYX=              2.3408 YYYZ=             -0.0000 ZZZX=             -0.0000
 ZZZY=             -0.0000 XXYY=            -30.5876 XXZZ=            -30.8513 YYZZ=            -11.1023
 XXYZ=             -0.0000 YYXZ=             -0.0000 ZZXY=              0.1375
 N-N= 6.875263574984D+01 E-N=-4.964144211511D+02  KE= 1.523160897833D+02
 Calling FoFJK, ICntrl=      2127 FMM=F ISym2X=0 I1Cent= 0 IOpClX= 0 NMat=1 NMatS=1 NMatT=0.
 ***** Axes restored to original set *****
 -------------------------------------------------------------------
 Center     Atomic                   Forces (Hartrees/Bohr)
 Number     Number              X              Y              Z
 -------------------------------------------------------------------
      1        6           0.005049471   -0.000002120   -0.005635523
      2        6           0.024603154    0.000000759    0.018904137
      3        8          -0.045318640   -0.000000485   -0.017609350
      4        1           0.001356484   -0.000000065   -0.015943613
      5        1          -0.011426045    0.000001521    0.013537281
      6        1           0.011298882   -0.000000016    0.015761201
      7        1           0.014436694    0.000000404   -0.009014132
 -------------------------------------------------------------------
 Cartesian Forces:  Max     0.045318640 RMS     0.014831450

 GradGradGradGradGradGradGradGradGradGradGradGradGradGradGradGradGradGrad
 Berny optimization.
 FormGI is forming the generalized inverse of G from B-inverse, IUseBI=4.
 Internal  Forces:  Max     0.055122697 RMS     0.016107510
 Search for a local minimum.
 Step number   1 out of a maximum of   29
 All quantities printed in internal units (Hartrees-Bohrs-Radians)
 Mixed Optimization -- RFO/linear search
 Second derivative matrix not updated -- first step.
 The second derivative matrix:
                          R1        R2        R3        R4        R5
           R1           0.60481
           R2           0.00000   0.33875
           R3           0.00000   0.00000   0.33875
           R4           0.00000   0.00000   0.00000   0.40989
           R5           0.00000   0.00000   0.00000   0.00000   0.33875
           R6           0.00000   0.00000   0.00000   0.00000   0.00000
           A1           0.00000   0.00000   0.00000   0.00000   0.00000
           A2           0.00000   0.00000   0.00000   0.00000   0.00000
           A3           0.00000   0.00000   0.00000   0.00000   0.00000
           A4           0.00000   0.00000   0.00000   0.00000   0.00000
           A5           0.00000   0.00000   0.00000   0.00000   0.00000
           A6           0.00000   0.00000   0.00000   0.00000   0.00000
           A7           0.00000   0.00000   0.00000   0.00000   0.00000
           D1           0.00000   0.00000   0.00000   0.00000   0.00000
           D2           0.00000   0.00000   0.00000   0.00000   0.00000
           D3           0.00000   0.00000   0.00000   0.00000   0.00000
           D4           0.00000   0.00000   0.00000   0.00000   0.00000
           D5           0.00000   0.00000   0.00000   0.00000   0.00000
           D6           0.00000   0.00000   0.00000   0.00000   0.00000
                          R6        A1        A2        A3        A4
           R6           0.55473
           A1           0.00000   0.16000
           A2           0.00000   0.00000   0.16000
           A3           0.00000   0.00000   0.00000   0.16000
           A4           0.00000   0.00000   0.00000   0.00000   0.25000
           A5           0.00000   0.00000   0.00000   0.00000   0.00000
           A6           0.00000   0.00000   0.00000   0.00000   0.00000
           A7           0.00000   0.00000   0.00000   0.00000   0.00000
           D1           0.00000   0.00000   0.00000   0.00000   0.00000
           D2           0.00000   0.00000   0.00000   0.00000   0.00000
           D3           0.00000   0.00000   0.00000   0.00000   0.00000
           D4           0.00000   0.00000   0.00000   0.00000   0.00000
           D5           0.00000   0.00000   0.00000   0.00000   0.00000
           D6           0.00000   0.00000   0.00000   0.00000   0.00000
                          A5        A6        A7        D1        D2
           A5           0.16000
           A6           0.00000   0.16000
           A7           0.00000   0.00000   0.16000
           D1           0.00000   0.00000   0.00000   0.03069
           D2           0.00000   0.00000   0.00000   0.00000   0.03069
           D3           0.00000   0.00000   0.00000   0.00000   0.00000
           D4           0.00000   0.00000   0.00000   0.00000   0.00000
           D5           0.00000   0.00000   0.00000   0.00000   0.00000
           D6           0.00000   0.00000   0.00000   0.00000   0.00000
                          D3        D4        D5        D6
           D3           0.03069
           D4           0.00000   0.03069
           D5           0.00000   0.00000   0.01295
           D6           0.00000   0.00000   0.00000   0.01295
 ITU=  0
     Eigenvalues ---    0.01295   0.02537   0.03069   0.03069   0.16000
     Eigenvalues ---    0.16000   0.16000   0.16000   0.22000   0.33875
     Eigenvalues ---    0.33875   0.33875   0.40989   0.55473   0.60481
 RFO step:  Lambda=-1.20955646D-02 EMin= 1.29493790D-02
 Linear search not attempted -- first point.
 Iteration  1 RMS(Cart)=  0.06261137 RMS(Int)=  0.00056852
 Iteration  2 RMS(Cart)=  0.00063126 RMS(Int)=  0.00000021
 Iteration  3 RMS(Cart)=  0.00000028 RMS(Int)=  0.00000000
 Variable       Old X    -DE/DX   Delta X   Delta X   Delta X     New X
                                 (Linear)    (Quad)   (Total)
    R1        2.50562  -0.02366   0.00000  -0.03836  -0.03836   2.46726
    R2        2.07542  -0.01693   0.00000  -0.04826  -0.04826   2.02717
    R3        2.07542  -0.01803   0.00000  -0.05138  -0.05138   2.02404
    R4        2.70231  -0.05512   0.00000  -0.13063  -0.13063   2.57168
    R5        2.07542  -0.01702   0.00000  -0.04851  -0.04851   2.02692
    R6        1.81414  -0.01583   0.00000  -0.02793  -0.02793   1.78621
    A1        2.14180  -0.00227   0.00000  -0.01317  -0.01317   2.12863
    A2        2.14183  -0.00629   0.00000  -0.03655  -0.03655   2.10528
    A3        1.99956   0.00856   0.00000   0.04972   0.04972   2.04927
    A4        2.14183  -0.00539   0.00000  -0.02321  -0.02321   2.11862
    A5        2.14180   0.00292   0.00000   0.01293   0.01293   2.15472
    A6        1.99956   0.00247   0.00000   0.01029   0.01029   2.00984
    A7        1.91114  -0.00422   0.00000  -0.02451  -0.02451   1.88663
    D1        0.00003  -0.00000   0.00000  -0.00002  -0.00002   0.00000
    D2       -3.14157  -0.00000   0.00000  -0.00002  -0.00002  -3.14159
    D3       -3.14159  -0.00000   0.00000  -0.00000  -0.00000  -3.14159
    D4       -0.00000   0.00000   0.00000   0.00000   0.00000   0.00000
    D5        3.14159   0.00000   0.00000   0.00000   0.00000  -3.14159
    D6        0.00000  -0.00000   0.00000   0.00000   0.00000   0.00000
         Item               Value     Threshold  Converged?
 Maximum Force            0.055123     0.000450     NO 
 RMS     Force            0.016108     0.000300     NO 
 Maximum Displacement     0.137912     0.001800     NO 
 RMS     Displacement     0.062404     0.001200     NO 
 Predicted change in Energy=-6.241488D-03
 GradGradGradGradGradGradGradGradGradGradGradGradGradGradGradGradGradGrad

                          Input orientation:                          
 ---------------------------------------------------------------------
 Center     Atomic      Atomic             Coordinates (Angstroms)
 Number     Number       Type             X           Y           Z
 ---------------------------------------------------------------------
      1          6           0        0.014664   -0.000005    0.020859
      2          6           0        0.007320    0.000001    1.326456
      3          8           0        1.165041   -0.000004    2.041763
      4          1           0        0.942548   -0.000002    2.960424
      5          1           0        0.927951   -0.000018   -0.541864
      6          1           0       -0.903947   -0.000001   -0.529921
      7          1           0       -0.890865    0.000010    1.912740
 ---------------------------------------------------------------------
                    Distance matrix (angstroms):
                    1          2          3          4          5
     1  C    0.000000
     2  C    1.305618   0.000000
     3  O    2.325386   1.360876   0.000000
     4  H    3.082534   1.882685   0.945220   0.000000
     5  H    1.072731   2.082831   2.594483   3.502319   0.000000
     6  H    1.071076   2.067980   3.300647   3.948677   1.831937
     7  H    2.097427   1.072598   2.059951   2.111646   3.055025
                    6          7
     6  H    0.000000
     7  H    2.442696   0.000000
 Stoichiometry    C2H4O
 Framework group  C1[X(C2H4O)]
 Deg. of freedom    15
 Full point group                 C1      NOp   1
 Largest Abelian subgroup         C1      NOp   1
 Largest concise Abelian subgroup C1      NOp   1
                         Standard orientation:                         
 ---------------------------------------------------------------------
 Center     Atomic      Atomic             Coordinates (Angstroms)
 Number     Number       Type             X           Y           Z
 ---------------------------------------------------------------------
      1          6           0       -1.203573   -0.177471   -0.000000
      2          6           0       -0.040537    0.415812   -0.000000
      3          8           0        1.118741   -0.296969   -0.000001
      4          1           0        1.839427    0.314629    0.000003
      5          1           0       -1.295851   -1.246226    0.000002
      6          1           0       -2.108419    0.395641   -0.000000
      7          1           0        0.079575    1.481663    0.000001
 ---------------------------------------------------------------------
 Rotational constants (GHZ):          64.5751520          10.7495049           9.2154540
 Standard basis: 6-31G(d) (6D, 7F)
 There are    53 symmetry adapted cartesian basis functions of A   symmetry.
 There are    53 symmetry adapted basis functions of A   symmetry.
    53 basis functions,   100 primitive gaussians,    53 cartesian basis functions
    12 alpha electrons       12 beta electrons
       nuclear repulsion energy        71.0159640095 Hartrees.
 NAtoms=    7 NActive=    7 NUniq=    7 SFac= 1.00D+00 NAtFMM=   60 NAOKFM=F Big=F
 Integral buffers will be    131072 words long.
 Raffenetti 1 integral format.
 Two-electron integral symmetry is turned on.
 One-electron integrals computed using PRISM.
 NBasis=    53 RedAO= T EigKep=  4.65D-03  NBF=    53
 NBsUse=    53 1.00D-06 EigRej= -1.00D+00 NBFU=    53
 Initial guess from the checkpoint file:  "vinyl-alcohol.chk"
 B after Tr=     0.000000   -0.000000   -0.000000
         Rot=    0.999993   -0.000000   -0.000000    0.003833 Ang=  -0.44 deg.
 ExpMin= 1.61D-01 ExpMax= 5.48D+03 ExpMxC= 8.25D+02 IAcc=3 IRadAn=         5 AccDes= 0.00D+00
 Harris functional with IExCor=  205 and IRadAn=       5 diagonalized for initial guess.
 HarFok:  IExCor=  205 AccDes= 0.00D+00 IRadAn=         5 IDoV= 1 UseB2=F ITyADJ=14
 ICtDFT=  3500011 ScaDFX=  1.000000  1.000000  1.000000  1.000000
 FoFCou: FMM=F IPFlag=           0 FMFlag=      100000 FMFlg1=           0
         NFxFlg=           0 DoJE=T BraDBF=F KetDBF=T FulRan=T
         wScrn=  0.000000 ICntrl=       500 IOpCl=  0 I1Cent=   200000004 NGrid=           0
         NMat0=    1 NMatS0=      1 NMatT0=    0 NMatD0=    1 NMtDS0=    0 NMtDT0=    0
 Petite list used in FoFCou.
 Keep R1 ints in memory in canonical form, NReq=1866087.
 Requested convergence on RMS density matrix=1.00D-08 within 128 cycles.
 Requested convergence on MAX density matrix=1.00D-06.
 Requested convergence on             energy=1.00D-06.
 No special actions if energy rises.
 SCF Done:  E(RHF) =  -152.884879898     A.U. after   11 cycles
            NFock= 11  Conv=0.45D-08     -V/T= 2.0012
 Calling FoFJK, ICntrl=      2127 FMM=F ISym2X=0 I1Cent= 0 IOpClX= 0 NMat=1 NMatS=1 NMatT=0.
 ***** Axes restored to original set *****
 -------------------------------------------------------------------
 Center     Atomic                   Forces (Hartrees/Bohr)
 Number     Number              X              Y              Z
 -------------------------------------------------------------------
      1        6          -0.004603175   -0.000000194   -0.013446805
      2        6           0.012062357   -0.000000065    0.007717342
      3        8          -0.008950171    0.000000018    0.003297768
      4        1           0.005197010   -0.000000022    0.001655324
      5        1           0.001953182    0.000000128    0.001078972
      6        1          -0.002211037    0.000000010   -0.000067773
      7        1          -0.003448165    0.000000125   -0.000234827
 -------------------------------------------------------------------
 Cartesian Forces:  Max     0.013446805 RMS     0.005115852

 GradGradGradGradGradGradGradGradGradGradGradGradGradGradGradGradGradGrad
 Berny optimization.
 Using GEDIIS/GDIIS optimizer.
 FormGI is forming the generalized inverse of G from B-inverse, IUseBI=4.
 Internal  Forces:  Max     0.012408067 RMS     0.004129912
 Search for a local minimum.
 Step number   2 out of a maximum of   29
 All quantities printed in internal units (Hartrees-Bohrs-Radians)
 Mixed Optimization -- RFO/linear search
 Update second derivatives using D2CorX and points    1    2
 DE= -5.86D-03 DEPred=-6.24D-03 R= 9.40D-01
 TightC=F SS=  1.41D+00  RLast= 1.79D-01 DXNew= 5.0454D-01 5.3690D-01
 Trust test= 9.40D-01 RLast= 1.79D-01 DXMaxT set to 5.05D-01
 The second derivative matrix:
                          R1        R2        R3        R4        R5
           R1           0.65819
           R2           0.01726   0.34074
           R3           0.02048   0.00317   0.34329
           R4           0.04411   0.00031   0.00351   0.39212
           R5           0.02192   0.00428   0.00571   0.00721   0.34555
           R6           0.01397   0.00069   0.00168  -0.00332   0.00275
           A1          -0.00316  -0.00244  -0.00257  -0.00810  -0.00240
           A2           0.00534   0.00030   0.00067  -0.00115   0.00108
           A3          -0.00218   0.00214   0.00190   0.00925   0.00132
           A4           0.01858   0.00693   0.00802   0.01894   0.00835
           A5          -0.01738  -0.00785  -0.00881  -0.02301  -0.00887
           A6          -0.00534  -0.00200  -0.00231  -0.00548  -0.00241
           A7           0.03061   0.01371   0.01541   0.04010   0.01554
           D1           0.00000   0.00000   0.00000   0.00000   0.00000
           D2           0.00000   0.00000   0.00000   0.00000   0.00000
           D3           0.00000   0.00000   0.00000   0.00000   0.00000
           D4          -0.00000  -0.00000  -0.00000  -0.00000  -0.00000
           D5          -0.00000  -0.00000  -0.00000  -0.00000  -0.00000
           D6           0.00000   0.00000   0.00000   0.00000   0.00000
                          R6        A1        A2        A3        A4
           R6           0.55431
           A1          -0.00233   0.15963
           A2          -0.00013  -0.00088   0.15996
           A3           0.00246   0.00125   0.00092   0.15784
           A4           0.00584  -0.00074   0.00223  -0.00149   0.25623
           A5          -0.00692   0.00015  -0.00263   0.00247  -0.00548
           A6          -0.00169   0.00021  -0.00064   0.00044  -0.00179
           A7           0.01207  -0.00031   0.00458  -0.00427   0.00968
           D1           0.00000  -0.00000   0.00000   0.00000   0.00000
           D2           0.00000  -0.00000   0.00000   0.00000   0.00000
           D3           0.00000  -0.00000   0.00000   0.00000   0.00000
           D4          -0.00000   0.00000  -0.00000   0.00000  -0.00000
           D5          -0.00000   0.00000  -0.00000   0.00000  -0.00000
           D6           0.00000   0.00000   0.00000  -0.00000   0.00000
                          A5        A6        A7        D1        D2
           A5           0.16428
           A6           0.00157   0.16051
           A7          -0.00760  -0.00277   0.17352
           D1          -0.00000  -0.00000   0.00000   0.03069
           D2          -0.00000  -0.00000   0.00000   0.00000   0.03069
           D3          -0.00000  -0.00000   0.00000   0.00000   0.00000
           D4           0.00000   0.00000  -0.00000  -0.00000  -0.00000
           D5           0.00000   0.00000  -0.00000  -0.00000  -0.00000
           D6          -0.00000  -0.00000   0.00000   0.00000   0.00000
                          D3        D4        D5        D6
           D3           0.03069
           D4          -0.00000   0.03069
           D5          -0.00000   0.00000   0.01295
           D6           0.00000  -0.00000  -0.00000   0.01295
 ITU=  1  0
 Use linear search instead of GDIIS.
     Eigenvalues ---    0.01295   0.02540   0.03069   0.03069   0.15076
     Eigenvalues ---    0.16000   0.16000   0.16726   0.22347   0.33816
     Eigenvalues ---    0.33875   0.35168   0.39624   0.55313   0.67685
 RFO step:  Lambda=-9.59449388D-04 EMin= 1.29493790D-02
 Quartic linear search produced a step of -0.06710.
 Iteration  1 RMS(Cart)=  0.01823259 RMS(Int)=  0.00032060
 Iteration  2 RMS(Cart)=  0.00033208 RMS(Int)=  0.00000001
 Iteration  3 RMS(Cart)=  0.00000002 RMS(Int)=  0.00000000
 Variable       Old X    -DE/DX   Delta X   Delta X   Delta X     New X
                                 (Linear)    (Quad)   (Total)
    R1        2.46726   0.01241   0.00257   0.01322   0.01580   2.48306
    R2        2.02717   0.00110   0.00324  -0.00467  -0.00143   2.02574
    R3        2.02404   0.00193   0.00345  -0.00287   0.00058   2.02462
    R4        2.57168  -0.00059   0.00877  -0.02182  -0.01306   2.55863
    R5        2.02692   0.00276   0.00325  -0.00014   0.00311   2.03003
    R6        1.78621   0.00039   0.00187  -0.00365  -0.00178   1.78443
    A1        2.12863  -0.00190   0.00088  -0.01329  -0.01240   2.11623
    A2        2.10528  -0.00014   0.00245  -0.00718  -0.00472   2.10056
    A3        2.04927   0.00204  -0.00334   0.02046   0.01713   2.06640
    A4        2.11862   0.00553   0.00156   0.01950   0.02106   2.13968
    A5        2.15472  -0.00488  -0.00087  -0.02175  -0.02261   2.13211
    A6        2.00984  -0.00066  -0.00069   0.00224   0.00155   2.01140
    A7        1.88663   0.00972   0.00164   0.05206   0.05370   1.94033
    D1        0.00000  -0.00000   0.00000  -0.00001  -0.00001  -0.00001
    D2       -3.14159  -0.00000   0.00000  -0.00001  -0.00001   3.14159
    D3       -3.14159   0.00000   0.00000  -0.00000  -0.00000  -3.14159
    D4        0.00000  -0.00000  -0.00000  -0.00000  -0.00000   0.00000
    D5       -3.14159  -0.00000  -0.00000   0.00000   0.00000  -3.14159
    D6        0.00000   0.00000  -0.00000   0.00000   0.00000   0.00000
         Item               Value     Threshold  Converged?
 Maximum Force            0.012408     0.000450     NO 
 RMS     Force            0.004130     0.000300     NO 
 Maximum Displacement     0.044523     0.001800     NO 
 RMS     Displacement     0.018068     0.001200     NO 
 Predicted change in Energy=-5.110184D-04
 GradGradGradGradGradGradGradGradGradGradGradGradGradGradGradGradGradGrad

                          Input orientation:                          
 ---------------------------------------------------------------------
 Center     Atomic      Atomic             Coordinates (Angstroms)
 Number     Number       Type             X           Y           Z
 ---------------------------------------------------------------------
      1          6           0        0.012183   -0.000008    0.010860
      2          6           0        0.012273    0.000001    1.324838
      3          8           0        1.153044   -0.000005    2.054128
      4          1           0        0.966109   -0.000002    2.979719
      5          1           0        0.928580   -0.000015   -0.545331
      6          1           0       -0.912379   -0.000002   -0.530475
      7          1           0       -0.897098    0.000013    1.896718
 ---------------------------------------------------------------------
                    Distance matrix (angstroms):
                    1          2          3          4          5
     1  C    0.000000
     2  C    1.313978   0.000000
     3  O    2.340195   1.353966   0.000000
     4  H    3.118349   1.910088   0.944279   0.000000
     5  H    1.071975   2.082582   2.609132   3.525249   0.000000
     6  H    1.071381   2.072960   3.308496   3.981228   1.841018
     7  H    2.093622   1.074245   2.056176   2.155094   3.049049
                    6          7
     6  H    0.000000
     7  H    2.427241   0.000000
 Stoichiometry    C2H4O
 Framework group  C1[X(C2H4O)]
 Deg. of freedom    15
 Full point group                 C1      NOp   1
 Largest Abelian subgroup         C1      NOp   1
 Largest concise Abelian subgroup C1      NOp   1
                         Standard orientation:                         
 ---------------------------------------------------------------------
 Center     Atomic      Atomic             Coordinates (Angstroms)
 Number     Number       Type             X           Y           Z
 ---------------------------------------------------------------------
      1          6           0       -1.214231   -0.176933    0.000001
      2          6           0       -0.037456    0.407652   -0.000001
      3          8           0        1.123257   -0.289463   -0.000000
      4          1           0        1.868992    0.289796    0.000003
      5          1           0       -1.304569   -1.245095   -0.000003
      6          1           0       -2.110415    0.410187    0.000000
      7          1           0        0.070060    1.476503   -0.000002
 ---------------------------------------------------------------------
 Rotational constants (GHZ):          65.9933036          10.6133318           9.1429264
 Standard basis: 6-31G(d) (6D, 7F)
 There are    53 symmetry adapted cartesian basis functions of A   symmetry.
 There are    53 symmetry adapted basis functions of A   symmetry.
    53 basis functions,   100 primitive gaussians,    53 cartesian basis functions
    12 alpha electrons       12 beta electrons
       nuclear repulsion energy        70.8983780889 Hartrees.
 NAtoms=    7 NActive=    7 NUniq=    7 SFac= 1.00D+00 NAtFMM=   60 NAOKFM=F Big=F
 Integral buffers will be    131072 words long.
 Raffenetti 1 integral format.
 Two-electron integral symmetry is turned on.
 One-electron integrals computed using PRISM.
 NBasis=    53 RedAO= T EigKep=  4.78D-03  NBF=    53
 NBsUse=    53 1.00D-06 EigRej= -1.00D+00 NBFU=    53
 Initial guess from the checkpoint file:  "vinyl-alcohol.chk"
 B after Tr=    -0.000000    0.000000    0.000000
         Rot=    1.000000   -0.000000   -0.000000    0.000387 Ang=  -0.04 deg.
 ExpMin= 1.61D-01 ExpMax= 5.48D+03 ExpMxC= 8.25D+02 IAcc=3 IRadAn=         5 AccDes= 0.00D+00
 Harris functional with IExCor=  205 and IRadAn=       5 diagonalized for initial guess.
 HarFok:  IExCor=  205 AccDes= 0.00D+00 IRadAn=         5 IDoV= 1 UseB2=F ITyADJ=14
 ICtDFT=  3500011 ScaDFX=  1.000000  1.000000  1.000000  1.000000
 FoFCou: FMM=F IPFlag=           0 FMFlag=      100000 FMFlg1=           0
         NFxFlg=           0 DoJE=T BraDBF=F KetDBF=T FulRan=T
         wScrn=  0.000000 ICntrl=       500 IOpCl=  0 I1Cent=   200000004 NGrid=           0
         NMat0=    1 NMatS0=      1 NMatT0=    0 NMatD0=    1 NMtDS0=    0 NMtDT0=    0
 Petite list used in FoFCou.
 Keep R1 ints in memory in canonical form, NReq=1866088.
 Requested convergence on RMS density matrix=1.00D-08 within 128 cycles.
 Requested convergence on MAX density matrix=1.00D-06.
 Requested convergence on             energy=1.00D-06.
 No special actions if energy rises.
 SCF Done:  E(RHF) =  -152.885361264     A.U. after   11 cycles
            NFock= 11  Conv=0.26D-08     -V/T= 2.0014
 Calling FoFJK, ICntrl=      2127 FMM=F ISym2X=0 I1Cent= 0 IOpClX= 0 NMat=1 NMatS=1 NMatT=0.
 ***** Axes restored to original set *****
 -------------------------------------------------------------------
 Center     Atomic                   Forces (Hartrees/Bohr)
 Number     Number              X              Y              Z
 -------------------------------------------------------------------
      1        6          -0.000323893    0.000000402    0.000123191
      2        6           0.001810360   -0.000000181    0.001809993
      3        8           0.001543558    0.000000078   -0.001445772
      4        1          -0.001082127    0.000000031    0.000387722
      5        1           0.001558213   -0.000000258   -0.000928925
      6        1          -0.001228691   -0.000000001   -0.000206188
      7        1          -0.002277420   -0.000000072    0.000259979
 -------------------------------------------------------------------
 Cartesian Forces:  Max     0.002277420 RMS     0.001036594

 GradGradGradGradGradGradGradGradGradGradGradGradGradGradGradGradGradGrad
 Berny optimization.
 Using GEDIIS/GDIIS optimizer.
 FormGI is forming the generalized inverse of G from B-inverse, IUseBI=4.
 Internal  Forces:  Max     0.002066285 RMS     0.000916889
 Search for a local minimum.
 Step number   3 out of a maximum of   29
 All quantities printed in internal units (Hartrees-Bohrs-Radians)
 Mixed Optimization -- En-DIIS/RFO-DIIS
 Update second derivatives using D2CorX and points    1    2    3
 DE= -4.81D-04 DEPred=-5.11D-04 R= 9.42D-01
 TightC=F SS=  1.41D+00  RLast= 6.89D-02 DXNew= 8.4853D-01 2.0667D-01
 Trust test= 9.42D-01 RLast= 6.89D-02 DXMaxT set to 5.05D-01
 The second derivative matrix:
                          R1        R2        R3        R4        R5
           R1           0.63775
           R2           0.00375   0.34499
           R3           0.01172   0.00489   0.34378
           R4           0.05635   0.00710   0.00773   0.38218
           R5           0.00422   0.00662   0.00614   0.01661   0.34516
           R6           0.01092   0.00325   0.00293  -0.00242   0.00501
           A1          -0.00258   0.00125  -0.00045  -0.00888   0.00162
           A2           0.01246  -0.00010   0.00076  -0.00550   0.00184
           A3          -0.00988  -0.00115  -0.00031   0.01438  -0.00347
           A4           0.00774  -0.00057   0.00321   0.02577  -0.00142
           A5          -0.01038  -0.00262  -0.00548  -0.02744  -0.00216
           A6          -0.02050   0.00139  -0.00109   0.00314  -0.00131
           A7           0.03522  -0.00417   0.00542   0.03894  -0.00271
           D1           0.00000   0.00000   0.00000   0.00000   0.00000
           D2           0.00000   0.00000   0.00000   0.00000   0.00000
           D3           0.00000   0.00000   0.00000   0.00000   0.00000
           D4           0.00000  -0.00000  -0.00000  -0.00000  -0.00000
           D5          -0.00000  -0.00000  -0.00000  -0.00000  -0.00000
           D6           0.00000   0.00000   0.00000   0.00000   0.00000
                          R6        A1        A2        A3        A4
           R6           0.55536
           A1          -0.00112   0.16044
           A2          -0.00094  -0.00238   0.15933
           A3           0.00206   0.00194   0.00305   0.15501
           A4           0.00416  -0.00050   0.00620  -0.00570   0.25045
           A5          -0.00570   0.00010  -0.00533   0.00524  -0.00176
           A6           0.00085   0.00403  -0.00037  -0.00366  -0.01027
           A7           0.00542  -0.00570   0.01097  -0.00527   0.01270
           D1           0.00000   0.00000  -0.00000  -0.00000  -0.00000
           D2           0.00000   0.00000  -0.00000  -0.00000  -0.00000
           D3           0.00000  -0.00000  -0.00000   0.00000   0.00000
           D4          -0.00000  -0.00000  -0.00000   0.00000   0.00000
           D5          -0.00000  -0.00000  -0.00000   0.00000   0.00000
           D6           0.00000  -0.00000   0.00000  -0.00000   0.00000
                          A5        A6        A7        D1        D2
           A5           0.16190
           A6           0.00743   0.16264
           A7          -0.01016  -0.02049   0.20560
           D1          -0.00000   0.00000  -0.00000   0.03069
           D2          -0.00000   0.00000  -0.00000   0.00000   0.03069
           D3          -0.00000   0.00000   0.00000   0.00000   0.00000
           D4          -0.00000  -0.00000   0.00000  -0.00000  -0.00000
           D5           0.00000  -0.00000   0.00000  -0.00000  -0.00000
           D6          -0.00000  -0.00000   0.00000   0.00000   0.00000
                          D3        D4        D5        D6
           D3           0.03069
           D4          -0.00000   0.03069
           D5          -0.00000   0.00000   0.01295
           D6           0.00000   0.00000  -0.00000   0.01295
 ITU=  1  1  0
 Use linear search instead of GDIIS.
     Eigenvalues ---    0.01295   0.02528   0.03069   0.03069   0.13751
     Eigenvalues ---    0.16000   0.16116   0.19178   0.23482   0.33728
     Eigenvalues ---    0.33963   0.34990   0.39127   0.55459   0.65806
 RFO step:  Lambda=-5.57942768D-05 EMin= 1.29493790D-02
 Quartic linear search produced a step of -0.04496.
 Iteration  1 RMS(Cart)=  0.00402063 RMS(Int)=  0.00001489
 Iteration  2 RMS(Cart)=  0.00001553 RMS(Int)=  0.00000000
 Iteration  3 RMS(Cart)=  0.00000000 RMS(Int)=  0.00000000
 Variable       Old X    -DE/DX   Delta X   Delta X   Delta X     New X
                                 (Linear)    (Quad)   (Total)
    R1        2.48306   0.00101  -0.00071   0.00289   0.00218   2.48524
    R2        2.02574   0.00181   0.00006   0.00486   0.00492   2.03066
    R3        2.02462   0.00116  -0.00003   0.00323   0.00321   2.02782
    R4        2.55863  -0.00018   0.00059  -0.00162  -0.00103   2.55760
    R5        2.03003   0.00207  -0.00014   0.00594   0.00580   2.03583
    R6        1.78443   0.00059   0.00008   0.00083   0.00091   1.78534
    A1        2.11623   0.00028   0.00056   0.00057   0.00113   2.11736
    A2        2.10056  -0.00059   0.00021  -0.00387  -0.00365   2.09690
    A3        2.06640   0.00031  -0.00077   0.00329   0.00252   2.06892
    A4        2.13968  -0.00010  -0.00095   0.00134   0.00039   2.14007
    A5        2.13211  -0.00096   0.00102  -0.00758  -0.00656   2.12554
    A6        2.01140   0.00106  -0.00007   0.00624   0.00617   2.01757
    A7        1.94033  -0.00176  -0.00241  -0.00574  -0.00815   1.93218
    D1       -0.00001   0.00000   0.00000   0.00001   0.00001   0.00000
    D2        3.14159   0.00000   0.00000   0.00000   0.00001  -3.14159
    D3       -3.14159   0.00000   0.00000   0.00000   0.00000  -3.14159
    D4        0.00000  -0.00000   0.00000  -0.00000  -0.00000  -0.00000
    D5       -3.14159  -0.00000  -0.00000  -0.00000  -0.00000  -3.14159
    D6        0.00000  -0.00000  -0.00000  -0.00000  -0.00000   0.00000
         Item               Value     Threshold  Converged?
 Maximum Force            0.002066     0.000450     NO 
 RMS     Force            0.000917     0.000300     NO 
 Maximum Displacement     0.007538     0.001800     NO 
 RMS     Displacement     0.004025     0.001200     NO 
 Predicted change in Energy=-2.894179D-05
 GradGradGradGradGradGradGradGradGradGradGradGradGradGradGradGradGradGrad

                          Input orientation:                          
 ---------------------------------------------------------------------
 Center     Atomic      Atomic             Coordinates (Angstroms)
 Number     Number       Type             X           Y           Z
 ---------------------------------------------------------------------
      1          6           0        0.013414   -0.000006    0.011137
      2          6           0        0.015178    0.000000    1.326269
      3          8           0        1.156134   -0.000004    2.054260
      4          1           0        0.962376   -0.000001    2.978939
      5          1           0        0.930693   -0.000017   -0.548612
      6          1           0       -0.915271   -0.000001   -0.526486
      7          1           0       -0.899813    0.000011    1.894950
 ---------------------------------------------------------------------
                    Distance matrix (angstroms):
                    1          2          3          4          5
     1  C    0.000000
     2  C    1.315133   0.000000
     3  O    2.340974   1.353422   0.000000
     4  H    3.115827   1.904863   0.944761   0.000000
     5  H    1.074580   2.086467   2.612617   3.527693   0.000000
     6  H    1.073077   2.073267   3.309224   3.976627   1.846097
     7  H    2.093498   1.077315   2.062110   2.154710   3.053154
                    6          7
     6  H    0.000000
     7  H    2.421485   0.000000
 Stoichiometry    C2H4O
 Framework group  C1[X(C2H4O)]
 Deg. of freedom    15
 Full point group                 C1      NOp   1
 Largest Abelian subgroup         C1      NOp   1
 Largest concise Abelian subgroup C1      NOp   1
                         Standard orientation:                         
 ---------------------------------------------------------------------
 Center     Atomic      Atomic             Coordinates (Angstroms)
 Number     Number       Type             X           Y           Z
 ---------------------------------------------------------------------
      1          6           0       -1.214453   -0.177326    0.000000
      2          6           0       -0.036293    0.407066    0.000000
      3          8           0        1.123807   -0.290012   -0.000000
      4          1           0        1.865297    0.295451    0.000002
      5          1           0       -1.306866   -1.247924    0.000001
      6          1           0       -2.109546    0.414537   -0.000000
      7          1           0        0.065136    1.479595   -0.000000
 ---------------------------------------------------------------------
 Rotational constants (GHZ):          65.7881327          10.6105877           9.1369430
 Standard basis: 6-31G(d) (6D, 7F)
 There are    53 symmetry adapted cartesian basis functions of A   symmetry.
 There are    53 symmetry adapted basis functions of A   symmetry.
    53 basis functions,   100 primitive gaussians,    53 cartesian basis functions
    12 alpha electrons       12 beta electrons
       nuclear repulsion energy        70.8606371215 Hartrees.
 NAtoms=    7 NActive=    7 NUniq=    7 SFac= 1.00D+00 NAtFMM=   60 NAOKFM=F Big=F
 Integral buffers will be    131072 words long.
 Raffenetti 1 integral format.
 Two-electron integral symmetry is turned on.
 One-electron integrals computed using PRISM.
 NBasis=    53 RedAO= T EigKep=  4.80D-03  NBF=    53
 NBsUse=    53 1.00D-06 EigRej= -1.00D+00 NBFU=    53
 Initial guess from the checkpoint file:  "vinyl-alcohol.chk"
 B after Tr=     0.000000    0.000000    0.000000
         Rot=    1.000000    0.000000    0.000000   -0.000097 Ang=  -0.01 deg.
 Keep R1 ints in memory in canonical form, NReq=1866088.
 Requested convergence on RMS density matrix=1.00D-08 within 128 cycles.
 Requested convergence on MAX density matrix=1.00D-06.
 Requested convergence on             energy=1.00D-06.
 No special actions if energy rises.
 SCF Done:  E(RHF) =  -152.885388861     A.U. after    9 cycles
            NFock=  9  Conv=0.59D-08     -V/T= 2.0015
 Calling FoFJK, ICntrl=      2127 FMM=F ISym2X=0 I1Cent= 0 IOpClX= 0 NMat=1 NMatS=1 NMatT=0.
 ***** Axes restored to original set *****
 -------------------------------------------------------------------
 Center     Atomic                   Forces (Hartrees/Bohr)
 Number     Number              X              Y              Z
 -------------------------------------------------------------------
      1        6           0.000050874   -0.000000078    0.000176792
      2        6          -0.000243861    0.000000092   -0.000405593
      3        8           0.000181549   -0.000000040    0.000067195
      4        1          -0.000034861    0.000000003    0.000193989
      5        1          -0.000253162    0.000000037    0.000047724
      6        1           0.000114441    0.000000003    0.000103871
      7        1           0.000185021   -0.000000017   -0.000183977
 -------------------------------------------------------------------
 Cartesian Forces:  Max     0.000405593 RMS     0.000153138

 GradGradGradGradGradGradGradGradGradGradGradGradGradGradGradGradGradGrad
 Berny optimization.
 Using GEDIIS/GDIIS optimizer.
 FormGI is forming the generalized inverse of G from B-inverse, IUseBI=4.
 Internal  Forces:  Max     0.000328269 RMS     0.000164721
 Search for a local minimum.
 Step number   4 out of a maximum of   29
 All quantities printed in internal units (Hartrees-Bohrs-Radians)
 Mixed Optimization -- En-DIIS/RFO-DIIS
 Swapping is turned off.
 Update second derivatives using D2CorX and points    1    2    3    4
 DE= -2.76D-05 DEPred=-2.89D-05 R= 9.54D-01
 TightC=F SS=  1.41D+00  RLast= 1.56D-02 DXNew= 8.4853D-01 4.6822D-02
 Trust test= 9.54D-01 RLast= 1.56D-02 DXMaxT set to 5.05D-01
 The second derivative matrix:
                          R1        R2        R3        R4        R5
           R1           0.65553
           R2           0.01941   0.35795
           R3           0.02188   0.01323   0.34918
           R4           0.04622  -0.00293   0.00139   0.38880
           R5           0.02180   0.02099   0.01537   0.00501   0.36100
           R6           0.00694  -0.00196  -0.00051  -0.00178  -0.00139
           A1          -0.00668  -0.00335  -0.00349  -0.00762  -0.00387
           A2           0.01331   0.00185   0.00215  -0.00405   0.00444
           A3          -0.00663   0.00150   0.00134   0.01168  -0.00058
           A4          -0.00058  -0.00942  -0.00268   0.02824  -0.01194
           A5          -0.00966   0.00034  -0.00346  -0.02554   0.00197
           A6          -0.01396   0.00642   0.00201  -0.00266   0.00414
           A7           0.03006  -0.00721   0.00361   0.04433  -0.00574
           D1           0.00000   0.00000   0.00000  -0.00000   0.00000
           D2           0.00000   0.00000   0.00000  -0.00000   0.00000
           D3           0.00000   0.00000   0.00000  -0.00000   0.00000
           D4          -0.00000  -0.00000  -0.00000   0.00000  -0.00000
           D5          -0.00000  -0.00000  -0.00000  -0.00000  -0.00000
           D6           0.00000   0.00000   0.00000  -0.00000   0.00000
                          R6        A1        A2        A3        A4
           R6           0.55238
           A1          -0.00251   0.16001
           A2           0.00199  -0.00076   0.15711
           A3           0.00052   0.00075   0.00366   0.15560
           A4           0.00188  -0.00101   0.00895  -0.00794   0.24984
           A5          -0.00039   0.00320  -0.00969   0.00649   0.00364
           A6          -0.00274   0.00134   0.00120  -0.00254  -0.01528
           A7           0.01002  -0.00252   0.00835  -0.00583   0.01830
           D1          -0.00000  -0.00000   0.00000   0.00000  -0.00000
           D2          -0.00000  -0.00000   0.00000   0.00000  -0.00000
           D3           0.00000  -0.00000  -0.00000   0.00000  -0.00000
           D4          -0.00000   0.00000   0.00000  -0.00000   0.00000
           D5          -0.00000   0.00000   0.00000  -0.00000   0.00000
           D6           0.00000   0.00000  -0.00000   0.00000   0.00000
                          A5        A6        A7        D1        D2
           A5           0.15388
           A6           0.01040   0.16452
           A7          -0.01507  -0.02108   0.20433
           D1           0.00000   0.00000  -0.00000   0.03069
           D2           0.00000   0.00000  -0.00000   0.00000   0.03069
           D3          -0.00000   0.00000  -0.00000   0.00000   0.00000
           D4           0.00000  -0.00000   0.00000  -0.00000  -0.00000
           D5           0.00000  -0.00000   0.00000  -0.00000  -0.00000
           D6          -0.00000   0.00000  -0.00000   0.00000   0.00000
                          D3        D4        D5        D6
           D3           0.03069
           D4          -0.00000   0.03069
           D5          -0.00000   0.00000   0.01295
           D6           0.00000  -0.00000  -0.00000   0.01295
 ITU=  1  1  1  0
     Eigenvalues ---    0.01295   0.02523   0.03069   0.03069   0.13258
     Eigenvalues ---    0.15799   0.16128   0.18265   0.23715   0.33795
     Eigenvalues ---    0.33966   0.38314   0.40435   0.55238   0.67241
 En-DIIS/RFO-DIIS/Sim-DIIS IScMMF=       -3 using points:     4    3
 RFO step:  Lambda=-1.47800445D-06.
 DidBck=F Rises=F RFO-DIIS coefs:    1.01315   -0.01315
 Iteration  1 RMS(Cart)=  0.00111816 RMS(Int)=  0.00000057
 Iteration  2 RMS(Cart)=  0.00000065 RMS(Int)=  0.00000000
 Variable       Old X    -DE/DX   Delta X   Delta X   Delta X     New X
                                 (Linear)    (Quad)   (Total)
    R1        2.48524  -0.00033   0.00003  -0.00052  -0.00049   2.48475
    R2        2.03066  -0.00024   0.00006  -0.00062  -0.00055   2.03011
    R3        2.02782  -0.00015   0.00004  -0.00038  -0.00034   2.02748
    R4        2.55760   0.00026  -0.00001   0.00064   0.00063   2.55823
    R5        2.03583  -0.00025   0.00008  -0.00065  -0.00058   2.03525
    R6        1.78534   0.00020   0.00001   0.00035   0.00037   1.78571
    A1        2.11736   0.00015   0.00001   0.00090   0.00091   2.11828
    A2        2.09690  -0.00011  -0.00005  -0.00065  -0.00070   2.09620
    A3        2.06892  -0.00004   0.00003  -0.00025  -0.00021   2.06871
    A4        2.14007   0.00027   0.00001   0.00116   0.00116   2.14123
    A5        2.12554  -0.00020  -0.00009  -0.00098  -0.00107   2.12448
    A6        2.01757  -0.00008   0.00008  -0.00018  -0.00010   2.01748
    A7        1.93218   0.00001  -0.00011  -0.00011  -0.00022   1.93195
    D1        0.00000  -0.00000   0.00000  -0.00000  -0.00000   0.00000
    D2       -3.14159  -0.00000   0.00000  -0.00000  -0.00000  -3.14159
    D3       -3.14159  -0.00000   0.00000  -0.00000  -0.00000  -3.14159
    D4       -0.00000   0.00000  -0.00000   0.00000   0.00000   0.00000
    D5       -3.14159   0.00000  -0.00000   0.00000   0.00000  -3.14159
    D6        0.00000  -0.00000  -0.00000  -0.00000  -0.00000   0.00000
         Item               Value     Threshold  Converged?
 Maximum Force            0.000328     0.000450     YES
 RMS     Force            0.000165     0.000300     YES
 Maximum Displacement     0.002178     0.001800     NO 
 RMS     Displacement     0.001118     0.001200     YES
 Predicted change in Energy=-7.390058D-07
 GradGradGradGradGradGradGradGradGradGradGradGradGradGradGradGradGradGrad

                          Input orientation:                          
 ---------------------------------------------------------------------
 Center     Atomic      Atomic             Coordinates (Angstroms)
 Number     Number       Type             X           Y           Z
 ---------------------------------------------------------------------
      1          6           0        0.013617   -0.000006    0.011076
      2          6           0        0.015817    0.000001    1.325949
      3          8           0        1.156449   -0.000005    2.055065
      4          1           0        0.961679   -0.000001    2.979730
      5          1           0        0.929949   -0.000017   -0.549664
      6          1           0       -0.915466   -0.000001   -0.525496
      7          1           0       -0.899333    0.000011    1.893798
 ---------------------------------------------------------------------
                    Distance matrix (angstroms):
                    1          2          3          4          5
     1  C    0.000000
     2  C    1.314875   0.000000
     3  O    2.341786   1.353755   0.000000
     4  H    3.116365   1.905164   0.944955   0.000000
     5  H    1.074288   2.086519   2.614559   3.529537   0.000000
     6  H    1.072896   2.072471   3.309401   3.976216   1.845574
     7  H    2.092396   1.077010   2.062098   2.154673   3.052340
                    6          7
     6  H    0.000000
     7  H    2.419348   0.000000
 Stoichiometry    C2H4O
 Framework group  C1[X(C2H4O)]
 Deg. of freedom    15
 Full point group                 C1      NOp   1
 Largest Abelian subgroup         C1      NOp   1
 Largest concise Abelian subgroup C1      NOp   1
                         Standard orientation:                         
 ---------------------------------------------------------------------
 Center     Atomic      Atomic             Coordinates (Angstroms)
 Number     Number       Type             X           Y           Z
 ---------------------------------------------------------------------
      1          6           0       -1.214687   -0.177292    0.000000
      2          6           0       -0.036529    0.406524   -0.000000
      3          8           0        1.124393   -0.289833   -0.000000
      4          1           0        1.865454    0.296486    0.000003
      5          1           0       -1.308472   -1.247479    0.000000
      6          1           0       -2.108981    0.415449    0.000000
      7          1           0        0.064148    1.478818   -0.000000
 ---------------------------------------------------------------------
 Rotational constants (GHZ):          65.8668904          10.6038575           9.1334679
 Standard basis: 6-31G(d) (6D, 7F)
 There are    53 symmetry adapted cartesian basis functions of A   symmetry.
 There are    53 symmetry adapted basis functions of A   symmetry.
    53 basis functions,   100 primitive gaussians,    53 cartesian basis functions
    12 alpha electrons       12 beta electrons
       nuclear repulsion energy        70.8562137295 Hartrees.
 NAtoms=    7 NActive=    7 NUniq=    7 SFac= 1.00D+00 NAtFMM=   60 NAOKFM=F Big=F
 Integral buffers will be    131072 words long.
 Raffenetti 1 integral format.
 Two-electron integral symmetry is turned on.
 One-electron integrals computed using PRISM.
 NBasis=    53 RedAO= T EigKep=  4.81D-03  NBF=    53
 NBsUse=    53 1.00D-06 EigRej= -1.00D+00 NBFU=    53
 Initial guess from the checkpoint file:  "vinyl-alcohol.chk"
 B after Tr=    -0.000000   -0.000000    0.000000
         Rot=    1.000000    0.000000    0.000000   -0.000025 Ang=  -0.00 deg.
 Keep R1 ints in memory in canonical form, NReq=1866088.
 Requested convergence on RMS density matrix=1.00D-08 within 128 cycles.
 Requested convergence on MAX density matrix=1.00D-06.
 Requested convergence on             energy=1.00D-06.
 No special actions if energy rises.
 SCF Done:  E(RHF) =  -152.885389640     A.U. after    8 cycles
            NFock=  8  Conv=0.58D-08     -V/T= 2.0015
 Calling FoFJK, ICntrl=      2127 FMM=F ISym2X=0 I1Cent= 0 IOpClX= 0 NMat=1 NMatS=1 NMatT=0.
 ***** Axes restored to original set *****
 -------------------------------------------------------------------
 Center     Atomic                   Forces (Hartrees/Bohr)
 Number     Number              X              Y              Z
 -------------------------------------------------------------------
      1        6           0.000088951    0.000000009    0.000016649
      2        6           0.000009604   -0.000000052    0.000032603
      3        8          -0.000076618    0.000000010   -0.000001673
      4        1          -0.000000463    0.000000009   -0.000030972
      5        1          -0.000039505    0.000000001   -0.000033518
      6        1          -0.000004849    0.000000009    0.000010321
      7        1           0.000022881    0.000000014    0.000006591
 -------------------------------------------------------------------
 Cartesian Forces:  Max     0.000088951 RMS     0.000030518

 GradGradGradGradGradGradGradGradGradGradGradGradGradGradGradGradGradGrad
 Berny optimization.
 Using GEDIIS/GDIIS optimizer.
 FormGI is forming the generalized inverse of G from B-inverse, IUseBI=4.
 Internal  Forces:  Max     0.000082529 RMS     0.000030970
 Search for a local minimum.
 Step number   5 out of a maximum of   29
 All quantities printed in internal units (Hartrees-Bohrs-Radians)
 Mixed Optimization -- En-DIIS/RFO-DIIS
 Swapping is turned off.
 Update second derivatives using D2CorX and points    1    2    3    4    5
 DE= -7.79D-07 DEPred=-7.39D-07 R= 1.05D+00
 Trust test= 1.05D+00 RLast= 2.33D-03 DXMaxT set to 5.05D-01
 The second derivative matrix:
                          R1        R2        R3        R4        R5
           R1           0.66195
           R2           0.01937   0.35516
           R3           0.02382   0.01274   0.34967
           R4           0.02389  -0.01282  -0.00715   0.42545
           R5           0.02197   0.01824   0.01495  -0.00517   0.35831
           R6          -0.00299  -0.00508  -0.00405   0.02039  -0.00468
           A1           0.00702   0.00709   0.00249  -0.01521   0.00680
           A2           0.00458  -0.00510  -0.00173  -0.00109  -0.00263
           A3          -0.01160  -0.00199  -0.00076   0.01630  -0.00417
           A4           0.00622  -0.00082   0.00088   0.03639  -0.00322
           A5           0.00242   0.00520   0.00096  -0.05053   0.00705
           A6          -0.01207   0.00734   0.00273  -0.00569   0.00508
           A7           0.02752  -0.00891   0.00251   0.04521  -0.00744
           D1           0.00001   0.00000   0.00000  -0.00001   0.00000
           D2          -0.00000   0.00000   0.00000   0.00000   0.00000
           D3           0.00000   0.00000   0.00000  -0.00001   0.00000
           D4          -0.00000  -0.00000  -0.00000   0.00000  -0.00000
           D5          -0.00001  -0.00000  -0.00000   0.00001  -0.00000
           D6           0.00000   0.00000   0.00000  -0.00000   0.00000
                          R6        A1        A2        A3        A4
           R6           0.56417
           A1          -0.01100   0.14871
           A2           0.00680   0.00778   0.15071
           A3           0.00420   0.00351   0.00151   0.15497
           A4           0.00163  -0.01929   0.02149  -0.00221   0.23026
           A5          -0.01410   0.00996  -0.01333   0.00337   0.00056
           A6          -0.00464   0.00164   0.00117  -0.00281  -0.01632
           A7           0.01149  -0.00083   0.00689  -0.00606   0.02102
           D1          -0.00000   0.00000  -0.00000  -0.00000  -0.00000
           D2           0.00000   0.00000  -0.00000   0.00000   0.00000
           D3          -0.00000  -0.00000   0.00000  -0.00000  -0.00000
           D4           0.00000  -0.00000   0.00000   0.00000   0.00000
           D5           0.00000   0.00000  -0.00000  -0.00000   0.00001
           D6          -0.00000  -0.00000   0.00000   0.00000  -0.00000
                          A5        A6        A7        D1        D2
           A5           0.16894
           A6           0.01248   0.16476
           A7          -0.01666  -0.02111   0.20374
           D1           0.00000   0.00000  -0.00000   0.03069
           D2          -0.00000   0.00000  -0.00000  -0.00000   0.03069
           D3           0.00000   0.00000  -0.00000   0.00000  -0.00000
           D4          -0.00000  -0.00000   0.00000  -0.00000   0.00000
           D5          -0.00000  -0.00000   0.00000  -0.00000   0.00000
           D6           0.00000   0.00000  -0.00000   0.00000  -0.00000
                          D3        D4        D5        D6
           D3           0.03069
           D4          -0.00000   0.03069
           D5          -0.00000   0.00000   0.01295
           D6           0.00000  -0.00000  -0.00000   0.01295
 ITU=  0  1  1  1  0
     Eigenvalues ---    0.01295   0.02523   0.03069   0.03069   0.12297
     Eigenvalues ---    0.14270   0.16225   0.18270   0.23309   0.33802
     Eigenvalues ---    0.33953   0.37582   0.45096   0.57104   0.67193
 En-DIIS/RFO-DIIS/Sim-DIIS IScMMF=       -3 using points:     5    4    3
 RFO step:  Lambda=-8.95795458D-08.
 DidBck=F Rises=F RFO-DIIS coefs:    1.18970   -0.18918   -0.00052
 Iteration  1 RMS(Cart)=  0.00033437 RMS(Int)=  0.00000008
 Iteration  2 RMS(Cart)=  0.00000008 RMS(Int)=  0.00000000
 Variable       Old X    -DE/DX   Delta X   Delta X   Delta X     New X
                                 (Linear)    (Quad)   (Total)
    R1        2.48475   0.00001  -0.00009   0.00010   0.00001   2.48477
    R2        2.03011  -0.00002  -0.00010   0.00004  -0.00006   2.03005
    R3        2.02748  -0.00000  -0.00006   0.00006  -0.00001   2.02747
    R4        2.55823  -0.00008   0.00012  -0.00031  -0.00019   2.55804
    R5        2.03525  -0.00002  -0.00011   0.00005  -0.00006   2.03520
    R6        1.78571  -0.00003   0.00007  -0.00010  -0.00003   1.78567
    A1        2.11828   0.00007   0.00017   0.00036   0.00054   2.11881
    A2        2.09620  -0.00005  -0.00014  -0.00025  -0.00038   2.09582
    A3        2.06871  -0.00003  -0.00004  -0.00012  -0.00016   2.06855
    A4        2.14123   0.00002   0.00022  -0.00002   0.00020   2.14143
    A5        2.12448   0.00001  -0.00021   0.00016  -0.00005   2.12443
    A6        2.01748  -0.00003  -0.00001  -0.00013  -0.00015   2.01733
    A7        1.93195  -0.00001  -0.00005  -0.00001  -0.00005   1.93190
    D1        0.00000   0.00000  -0.00000   0.00000   0.00000   0.00000
    D2       -3.14159  -0.00000  -0.00000  -0.00000  -0.00000   3.14159
    D3       -3.14159   0.00000  -0.00000   0.00000   0.00000  -3.14159
    D4        0.00000  -0.00000   0.00000  -0.00000  -0.00000   0.00000
    D5       -3.14159  -0.00000   0.00000  -0.00000  -0.00000  -3.14159
    D6        0.00000   0.00000  -0.00000  -0.00000  -0.00000   0.00000
         Item               Value     Threshold  Converged?
 Maximum Force            0.000083     0.000450     YES
 RMS     Force            0.000031     0.000300     YES
 Maximum Displacement     0.000919     0.001800     YES
 RMS     Displacement     0.000334     0.001200     YES
 Predicted change in Energy=-4.478979D-08
 Optimization completed.
    -- Stationary point found.
                           ----------------------------
                           !   Optimized Parameters   !
                           ! (Angstroms and Degrees)  !
 --------------------------                            --------------------------
 ! Name  Definition              Value          Derivative Info.                !
 --------------------------------------------------------------------------------
 ! R1    R(1,2)                  1.3149         -DE/DX =    0.0                 !
 ! R2    R(1,5)                  1.0743         -DE/DX =    0.0                 !
 ! R3    R(1,6)                  1.0729         -DE/DX =    0.0                 !
 ! R4    R(2,3)                  1.3538         -DE/DX =   -0.0001              !
 ! R5    R(2,7)                  1.077          -DE/DX =    0.0                 !
 ! R6    R(3,4)                  0.945          -DE/DX =    0.0                 !
 ! A1    A(2,1,5)              121.3682         -DE/DX =    0.0001              !
 ! A2    A(2,1,6)              120.1035         -DE/DX =    0.0                 !
 ! A3    A(5,1,6)              118.5283         -DE/DX =    0.0                 !
 ! A4    A(1,2,3)              122.6835         -DE/DX =    0.0                 !
 ! A5    A(1,2,7)              121.7237         -DE/DX =    0.0                 !
 ! A6    A(3,2,7)              115.5929         -DE/DX =    0.0                 !
 ! A7    A(2,3,4)              110.6928         -DE/DX =    0.0                 !
 ! D1    D(5,1,2,3)              0.0            -DE/DX =    0.0                 !
 ! D2    D(5,1,2,7)            180.0            -DE/DX =    0.0                 !
 ! D3    D(6,1,2,3)           -180.0            -DE/DX =    0.0                 !
 ! D4    D(6,1,2,7)              0.0            -DE/DX =    0.0                 !
 ! D5    D(1,2,3,4)           -179.9998         -DE/DX =    0.0                 !
 ! D6    D(7,2,3,4)              0.0002         -DE/DX =    0.0                 !
 --------------------------------------------------------------------------------
 GradGradGradGradGradGradGradGradGradGradGradGradGradGradGradGradGradGrad

                          Input orientation:                          
 ---------------------------------------------------------------------
 Center     Atomic      Atomic             Coordinates (Angstroms)
 Number     Number       Type             X           Y           Z
 ---------------------------------------------------------------------
      1          6           0        0.013617   -0.000006    0.011076
      2          6           0        0.015817    0.000001    1.325949
      3          8           0        1.156449   -0.000005    2.055065
      4          1           0        0.961679   -0.000001    2.979730
      5          1           0        0.929949   -0.000017   -0.549664
      6          1           0       -0.915466   -0.000001   -0.525496
      7          1           0       -0.899333    0.000011    1.893798
 ---------------------------------------------------------------------
                    Distance matrix (angstroms):
                    1          2          3          4          5
     1  C    0.000000
     2  C    1.314875   0.000000
     3  O    2.341786   1.353755   0.000000
     4  H    3.116365   1.905164   0.944955   0.000000
     5  H    1.074288   2.086519   2.614559   3.529537   0.000000
     6  H    1.072896   2.072471   3.309401   3.976216   1.845574
     7  H    2.092396   1.077010   2.062098   2.154673   3.052340
                    6          7
     6  H    0.000000
     7  H    2.419348   0.000000
 Stoichiometry    C2H4O
 Framework group  C1[X(C2H4O)]
 Deg. of freedom    15
 Full point group                 C1      NOp   1
 Largest Abelian subgroup         C1      NOp   1
 Largest concise Abelian subgroup C1      NOp   1
                         Standard orientation:                         
 ---------------------------------------------------------------------
 Center     Atomic      Atomic             Coordinates (Angstroms)
 Number     Number       Type             X           Y           Z
 ---------------------------------------------------------------------
      1          6           0       -1.214687   -0.177292    0.000000
      2          6           0       -0.036529    0.406524   -0.000000
      3          8           0        1.124393   -0.289833   -0.000000
      4          1           0        1.865454    0.296486    0.000003
      5          1           0       -1.308472   -1.247479    0.000000
      6          1           0       -2.108981    0.415449    0.000000
      7          1           0        0.064148    1.478818   -0.000000
 ---------------------------------------------------------------------
 Rotational constants (GHZ):          65.8668904          10.6038575           9.1334679

 **********************************************************************

            Population analysis using the SCF Density.

 **********************************************************************

 Orbital symmetries:
       Occupied  (A) (A) (A) (A) (A) (A) (A) (A) (A) (A) (A) (A)
       Virtual   (A) (A) (A) (A) (A) (A) (A) (A) (A) (A) (A) (A)
                 (A) (A) (A) (A) (A) (A) (A) (A) (A) (A) (A) (A)
                 (A) (A) (A) (A) (A) (A) (A) (A) (A) (A) (A) (A)
                 (A) (A) (A) (A) (A)
 The electronic state is 1-A.
 Alpha  occ. eigenvalues --  -20.58697 -11.28921 -11.20209  -1.40183  -1.02342
 Alpha  occ. eigenvalues --   -0.79534  -0.74141  -0.61889  -0.57166  -0.56761
 Alpha  occ. eigenvalues --   -0.51296  -0.33952
 Alpha virt. eigenvalues --    0.20920   0.21314   0.29186   0.30956   0.34296
 Alpha virt. eigenvalues --    0.47436   0.51505   0.72386   0.76926   0.82234
 Alpha virt. eigenvalues --    0.83899   0.88511   0.95020   1.05163   1.13769
 Alpha virt. eigenvalues --    1.15946   1.21761   1.22447   1.23638   1.34516
 Alpha virt. eigenvalues --    1.47028   1.49355   1.66916   1.73271   1.73483
 Alpha virt. eigenvalues --    2.00499   2.07382   2.13636   2.22014   2.31403
 Alpha virt. eigenvalues --    2.54771   2.60425   2.60485   2.83787   2.86594
 Alpha virt. eigenvalues --    3.04513   3.18899   3.34255   4.18469   4.54793
 Alpha virt. eigenvalues --    4.72949
          Condensed to atoms (all electrons):
               1          2          3          4          5          6
     1  C    5.108450   0.677957  -0.057948   0.005047   0.390956   0.393064
     2  C    0.677957   4.577965   0.263502  -0.021085  -0.037144  -0.035654
     3  O   -0.057948   0.263502   8.275232   0.265987  -0.000560   0.001955
     4  H    0.005047  -0.021085   0.265987   0.301785  -0.000052  -0.000183
     5  H    0.390956  -0.037144  -0.000560  -0.000052   0.477041  -0.022169
     6  H    0.393064  -0.035654   0.001955  -0.000183  -0.022169   0.487192
     7  H   -0.050510   0.396118  -0.043429  -0.006211   0.003539  -0.001169
               7
     1  C   -0.050510
     2  C    0.396118
     3  O   -0.043429
     4  H   -0.006211
     5  H    0.003539
     6  H   -0.001169
     7  H    0.528315
 Mulliken charges:
               1
     1  C   -0.467016
     2  C    0.178342
     3  O   -0.704738
     4  H    0.454713
     5  H    0.188389
     6  H    0.176964
     7  H    0.173347
 Sum of Mulliken charges =  -0.00000
 Mulliken charges with hydrogens summed into heavy atoms:
               1
     1  C   -0.101664
     2  C    0.351689
     3  O   -0.250025
 Electronic spatial extent (au):  <R**2>=            161.9499
 Charge=              0.0000 electrons
 Dipole moment (field-independent basis, Debye):
    X=              0.8079    Y=              1.9326    Z=              0.0000  Tot=              2.0946
 Quadrupole moment (field-independent basis, Debye-Ang):
   XX=            -14.6077   YY=            -17.1222   ZZ=            -20.5097
   XY=              2.6652   XZ=              0.0000   YZ=              0.0000
 Traceless Quadrupole moment (field-independent basis, Debye-Ang):
   XX=              2.8055   YY=              0.2910   ZZ=             -3.0965
   XY=              2.6652   XZ=              0.0000   YZ=              0.0000
 Octapole moment (field-independent basis, Debye-Ang**2):
  XXX=             13.3658  YYY=              0.4383  ZZZ=              0.0000  XYY=              1.0975
  XXY=              3.9838  XXZ=              0.0000  XZZ=              3.5419  YZZ=             -0.0449
  YYZ=              0.0000  XYZ=              0.0000
 Hexadecapole moment (field-independent basis, Debye-Ang**3):
 XXXX=           -113.2840 YYYY=            -38.1525 ZZZZ=            -19.7002 XXXY=              3.8036
 XXXZ=              0.0000 YYYX=              1.8913 YYYZ=              0.0000 ZZZX=              0.0000
 ZZZY=              0.0000 XXYY=            -28.8823 XXZZ=            -29.0875 YYZZ=            -10.7555
 XXYZ=              0.0000 YYXZ=              0.0000 ZZXY=              0.0889
 N-N= 7.085621372954D+01 E-N=-5.008393056926D+02  KE= 1.526579124495D+02
 B after Tr=     0.007837    0.000006    0.021880
         Rot=    0.999999   -0.000001   -0.001416   -0.000001 Ang=  -0.16 deg.
 Atom   2 needs constant  BL=   1.3259160000 but is    1.3148749048
 Input z-matrix variables are not compatible with final structure.
 1\1\GINC-CCDS7\FOpt\RHF\6-31G(d)\C2H4O1\CD61006-G3\12-Feb-2024\0\\# op
 t Temperature=500.0 # freq # hf/6-31g(d) geom=connectivity\\Title Card
  Required\\0,1\C,0.0136167014,-0.0000061314,0.0110755652\C,0.015816628
 5,0.0000008108,1.3259486297\O,1.1564491339,-0.0000046616,2.0550654692\
 H,0.9616790226,-0.0000012841,2.9797303959\H,0.9299493991,-0.0000166613
 ,-0.5496639913\H,-0.9154664785,-0.0000012308,-0.5254963703\H,-0.899332
 669,0.0000111553,1.8937976893\\Version=EM64L-G16RevB.01\State=1-A\HF=-
 152.8853896\RMSD=5.780e-09\RMSF=3.052e-05\Dipole=-0.5391039,0.0000054,
 0.6232934\Quadrupole=-0.9932541,-2.3021659,3.29542,-0.0000158,-0.44927
 32,0.0000236\PG=C01 [X(C2H4O1)]\\@


 SATCHEL PAIGE'S GUIDE TO LONGEVITY

    1.  AVOID FRIED MEATS, WHICH ANGRY UP THE BLOOD.

[...]
 FormGI is forming the generalized inverse of G from B-inverse, IUseBI=4.

 GradGradGradGradGradGradGradGradGradGradGradGradGradGradGradGradGradGrad
 Berny optimization.
 Internal  Forces:  Max     0.000082515 RMS     0.000030968
 Search for a local minimum.
 Step number   1 out of a maximum of    2
 All quantities printed in internal units (Hartrees-Bohrs-Radians)
 Second derivative matrix not updated -- analytic derivatives used.
 The second derivative matrix:
                          R1        R2        R3        R4        R5
           R1           0.74460
           R2           0.00547   0.40601
           R3           0.00341   0.00271   0.40812
           R4           0.04274   0.00063   0.00020   0.48215
           R5           0.00744   0.00013   0.00112   0.01266   0.39609
           R6          -0.00220  -0.00034  -0.00015  -0.00454   0.00092
           A1           0.00779   0.00796  -0.01191  -0.00534   0.00439
           A2           0.01315  -0.01247   0.00641   0.00654  -0.00291
           A3          -0.02094   0.00451   0.00550  -0.00121  -0.00148
           A4           0.01380  -0.00573   0.00556   0.03870  -0.01149
           A5           0.00900   0.00578  -0.00324  -0.04688   0.00713
           A6          -0.02281  -0.00005  -0.00231   0.00818   0.00436
           A7           0.00459   0.00003   0.00131   0.05666  -0.00124
           D1           0.00000   0.00000   0.00000   0.00000  -0.00000
           D2          -0.00000   0.00000   0.00000  -0.00000  -0.00000
           D3           0.00000  -0.00000  -0.00000   0.00000  -0.00000
           D4          -0.00000  -0.00000  -0.00000   0.00000   0.00000
           D5          -0.00000   0.00000  -0.00000  -0.00000  -0.00000
           D6           0.00000   0.00000  -0.00000  -0.00000  -0.00000
                          R6        A1        A2        A3        A4
           R6           0.61705
           A1          -0.00071   0.08485
           A2           0.00073  -0.04597   0.08757
           A3          -0.00002  -0.03888  -0.04160   0.08048
           A4           0.00654  -0.01747   0.01733   0.00014   0.15418
           A5           0.00114   0.01592  -0.01288  -0.00305  -0.06679
           A6          -0.00768   0.00155  -0.00446   0.00291  -0.08739
           A7           0.01416  -0.00275   0.00437  -0.00161   0.02083
           D1          -0.00000   0.00000  -0.00000  -0.00000   0.00000
           D2          -0.00000   0.00000  -0.00000  -0.00000   0.00000
           D3          -0.00000  -0.00000   0.00000  -0.00000   0.00000
           D4          -0.00000   0.00000  -0.00000  -0.00000   0.00000
           D5          -0.00000   0.00000  -0.00000   0.00000  -0.00000
           D6          -0.00000   0.00000  -0.00000   0.00000   0.00000
                          A5        A6        A7        D1        D2
           A5           0.11053
           A6          -0.04374   0.13113
           A7          -0.00928  -0.01155   0.20990
           D1          -0.00000  -0.00000  -0.00000   0.02771
           D2          -0.00000  -0.00000   0.00000   0.01087   0.02862
           D3          -0.00000  -0.00000  -0.00000   0.00983  -0.01342
           D4          -0.00000  -0.00000  -0.00000  -0.00701   0.00434
           D5          -0.00000   0.00000   0.00000  -0.01012   0.00922
           D6          -0.00000  -0.00000   0.00000   0.00577  -0.00753
                          D3        D4        D5        D6
           D3           0.03441
           D4           0.01116   0.02251
           D5          -0.01461   0.00473   0.01176
           D6           0.00732  -0.00598  -0.00647   0.00607
 ITU=  0
     Eigenvalues ---    0.00155   0.03269   0.03963   0.05722   0.11370
     Eigenvalues ---    0.12174   0.15953   0.19150   0.23939   0.39702
     Eigenvalues ---    0.40630   0.41024   0.50052   0.61785   0.75486
 Angle between quadratic step and forces=  31.11 degrees.
 Linear search not attempted -- first point.
 Iteration  1 RMS(Cart)=  0.00034712 RMS(Int)=  0.00000009
 Iteration  2 RMS(Cart)=  0.00000009 RMS(Int)=  0.00000000
 Variable       Old X    -DE/DX   Delta X   Delta X   Delta X     New X
                                 (Linear)    (Quad)   (Total)
    R1        2.48475   0.00001   0.00000   0.00001   0.00001   2.48476
    R2        2.03011  -0.00002   0.00000  -0.00006  -0.00006   2.03005
    R3        2.02748  -0.00000   0.00000   0.00002   0.00002   2.02750
    R4        2.55823  -0.00008   0.00000  -0.00018  -0.00018   2.55805
    R5        2.03525  -0.00002   0.00000  -0.00004  -0.00004   2.03522
    R6        1.78571  -0.00003   0.00000  -0.00005  -0.00005   1.78565
    A1        2.11828   0.00007   0.00000   0.00061   0.00061   2.11889
    A2        2.09620  -0.00005   0.00000  -0.00039  -0.00039   2.09581
    A3        2.06871  -0.00003   0.00000  -0.00022  -0.00022   2.06849
    A4        2.14123   0.00002   0.00000   0.00019   0.00019   2.14142
    A5        2.12448   0.00001   0.00000  -0.00007  -0.00007   2.12441
    A6        2.01748  -0.00003   0.00000  -0.00012  -0.00012   2.01736
    A7        1.93195  -0.00001   0.00000  -0.00002  -0.00002   1.93193
    D1        0.00000   0.00000   0.00000  -0.00000  -0.00000   0.00000
    D2       -3.14159  -0.00000   0.00000  -0.00000  -0.00000   3.14159
    D3       -3.14159   0.00000   0.00000  -0.00000  -0.00000   3.14159
    D4        0.00000  -0.00000   0.00000  -0.00000  -0.00000   0.00000
    D5       -3.14159  -0.00000   0.00000  -0.00000  -0.00000   3.14159
    D6        0.00000   0.00000   0.00000  -0.00000  -0.00000   0.00000
         Item               Value     Threshold  Converged?
 Maximum Force            0.000083     0.000450     YES
 RMS     Force            0.000031     0.000300     YES
 Maximum Displacement     0.001004     0.001800     YES
 RMS     Displacement     0.000347     0.001200     YES
 Predicted change in Energy=-4.741898D-08
 Optimization completed.
    -- Stationary point found.
                           ----------------------------
                           !   Optimized Parameters   !
                           ! (Angstroms and Degrees)  !
 --------------------------                            --------------------------
 ! Name  Definition              Value          Derivative Info.                !
 --------------------------------------------------------------------------------
 ! R1    R(1,2)                  1.3149         -DE/DX =    0.0                 !
 ! R2    R(1,5)                  1.0743         -DE/DX =    0.0                 !
 ! R3    R(1,6)                  1.0729         -DE/DX =    0.0                 !
 ! R4    R(2,3)                  1.3538         -DE/DX =   -0.0001              !
 ! R5    R(2,7)                  1.077          -DE/DX =    0.0                 !
 ! R6    R(3,4)                  0.945          -DE/DX =    0.0                 !
 ! A1    A(2,1,5)              121.3682         -DE/DX =    0.0001              !
 ! A2    A(2,1,6)              120.1035         -DE/DX =    0.0                 !
 ! A3    A(5,1,6)              118.5283         -DE/DX =    0.0                 !
 ! A4    A(1,2,3)              122.6835         -DE/DX =    0.0                 !
 ! A5    A(1,2,7)              121.7237         -DE/DX =    0.0                 !
 ! A6    A(3,2,7)              115.5929         -DE/DX =    0.0                 !
 ! A7    A(2,3,4)              110.6928         -DE/DX =    0.0                 !
 ! D1    D(5,1,2,3)              0.0            -DE/DX =    0.0                 !
 ! D2    D(5,1,2,7)            180.0            -DE/DX =    0.0                 !
 ! D3    D(6,1,2,3)            180.0            -DE/DX =    0.0                 !
 ! D4    D(6,1,2,7)              0.0            -DE/DX =    0.0                 !
 ! D5    D(1,2,3,4)            180.0002         -DE/DX =    0.0                 !
 ! D6    D(7,2,3,4)              0.0002         -DE/DX =    0.0                 !
 --------------------------------------------------------------------------------
 GradGradGradGradGradGradGradGradGradGradGradGradGradGradGradGradGradGrad


 ----------------------------------------------------------------------

 Electric dipole moment (input orientation):
 (Debye = 10**-18 statcoulomb cm , SI units = C m)
                  (au)            (Debye)         (10**-30 SI)
   Tot        0.824092D+00      0.209463D+01      0.698694D+01
   x         -0.539104D+00     -0.137027D+01     -0.457071D+01
   y          0.000000D+00      0.000000D+00      0.000000D+00
   z          0.623293D+00      0.158425D+01      0.528450D+01

 Dipole polarizability, Alpha (input orientation).
 (esu units = cm**3 , SI units = C**2 m**2 J**-1)
 Alpha(0;0):
               (au)            (10**-24 esu)      (10**-40 SI)
   iso        0.230315D+02      0.341291D+01      0.379738D+01
   aniso      0.233387D+02      0.345843D+01      0.384802D+01
   xx         0.216056D+02      0.320162D+01      0.356228D+01
   yx        -0.824699D-04     -0.122208D-04     -0.135975D-04
   yy         0.104424D+02      0.154741D+01      0.172173D+01
   zx         0.175971D+01      0.260762D+00      0.290137D+00
   zy         0.117900D-03      0.174710D-04      0.194391D-04
   zz         0.370464D+02      0.548971D+01      0.610813D+01

 First dipole hyperpolarizability, Beta (input orientation).
 ||, _|_  parallel and perpendicular components, (z) with respect to z axis,
 vector components x,y,z.  Values do not include the 1/n! factor of 1/2.
 (esu units = statvolt**-1 cm**4 , SI units = C**3 m**3 J**-2)
 Beta(0;0,0):
               (au)            (10**-30 esu)      (10**-50 SI)
   || (z)    -0.541542D+01     -0.467850D-01     -0.173638D-01
   _|_(z)    -0.180514D+01     -0.155950D-01     -0.578793D-02
   x         -0.179458D+03     -0.155038D+01     -0.575409D+00
   y          0.107804D-02      0.931339D-05      0.345657D-05
   z         -0.270771D+02     -0.233925D+00     -0.868189D-01
   ||         0.362979D+02      0.313586D+00      0.116384D+00
   xxx       -0.373137D+02     -0.322361D+00     -0.119641D+00
   xxy        0.173846D-03      0.150189D-05      0.557413D-06
   yxy        0.652907D+00      0.564060D-02      0.209345D-02
   yyy        0.274742D-04      0.237356D-06      0.880922D-07
   xxz       -0.275823D+02     -0.238290D+00     -0.884389D-01
   yxz        0.120112D-03      0.103767D-05      0.385122D-06
   yyz        0.256106D+01      0.221255D-01      0.821167D-02
   zxz       -0.231587D+02     -0.200073D+00     -0.742553D-01
   zyz        0.158025D-03      0.136522D-05      0.506686D-06
   zzz        0.159956D+02      0.138189D+00      0.512876D-01

 ----------------------------------------------------------------------

 Dipole orientation:
     6          0.03315384         -0.00001166         -0.00100321
     6          1.66177026         -0.00001470          1.87559165
     8          4.19339582         -0.00002878          1.50762722
     1          5.05810497         -0.00003466          3.07000584
     1          0.64964739         -0.00002047         -1.93524256
     1         -1.95808186         -0.00000006          0.38063926
     1          1.05575701         -0.00000633          3.81852949

 Electric dipole moment (dipole orientation):
 (Debye = 10**-18 statcoulomb cm , SI units = C m)
                  (au)            (Debye)         (10**-30 SI)
   Tot        0.824092D+00      0.209463D+01      0.698694D+01
   x          0.000000D+00      0.000000D+00      0.000000D+00
   y          0.000000D+00      0.000000D+00      0.000000D+00
   z          0.824092D+00      0.209463D+01      0.698694D+01

 Dipole polarizability, Alpha (dipole orientation).
 (esu units = cm**3 , SI units = C**2 m**2 J**-1)
 Alpha(0;0):
               (au)            (10**-24 esu)      (10**-40 SI)
   iso        0.230315D+02      0.341291D+01      0.379738D+01
   aniso      0.233387D+02      0.345843D+01      0.384802D+01
   xx         0.299549D+02      0.443885D+01      0.493889D+01
   yx        -0.839004D-04     -0.124328D-04     -0.138333D-04
   yy         0.104424D+02      0.154741D+01      0.172173D+01
   zx         0.789340D+01      0.116968D+01      0.130145D+01
   zy         0.000000D+00      0.000000D+00      0.000000D+00
   zz         0.286972D+02      0.425248D+01      0.473152D+01

 First dipole hyperpolarizability, Beta (dipole orientation).
 ||, _|_  parallel and perpendicular components, (z) with respect to z axis,
 vector components x,y,z.  Values do not include the 1/n! factor of 1/2.
 (esu units = statvolt**-1 cm**4 , SI units = C**3 m**3 J**-2)
 Beta(0;0,0):
               (au)            (10**-30 esu)      (10**-50 SI)
   || (z)     0.193837D+02      0.167460D+00      0.621512D-01
   _|_(z)     0.646124D+01      0.558201D-01      0.207171D-01
   x         -0.153445D+03     -0.132564D+01     -0.491999D+00
   y          0.819285D-03      0.707799D-05      0.262692D-05
   z          0.969185D+02      0.837301D+00      0.310756D+00
   ||         0.362979D+02      0.313586D+00      0.116384D+00
   xxx       -0.651198D+02     -0.562584D+00     -0.208798D+00
   xxy        0.361791D-03      0.312560D-05      0.116003D-05
   yxy        0.216921D+01      0.187403D-01      0.695527D-02
   yyy       -0.177726D-04     -0.153541D-06     -0.569853D-07
   xxz        0.142130D+02      0.122789D+00      0.455720D-01
   yxz       -0.839894D-04     -0.725603D-06     -0.269300D-06
   yyz        0.150991D+01      0.130444D-01      0.484132D-02
   zxz        0.118023D+02      0.101963D+00      0.378425D-01
   zyz       -0.709238D-04     -0.612727D-06     -0.227407D-06
   zzz        0.165833D+02      0.143267D+00      0.531720D-01

 ----------------------------------------------------------------------
 1\1\GINC-CCDS7\Freq\RHF\6-31G(d)\C2H4O1\CD61006-G3\12-Feb-2024\0\\#N G
 eom=AllCheck Guess=TCheck SCRF=Check GenChk RHF/6-31G(d) Freq\\Title C
 ard Required\\0,1\C,0.0136167014,-0.0000061314,0.0110755652\C,0.015816
 6285,0.0000008108,1.3259486297\O,1.1564491339,-0.0000046616,2.05506546
 92\H,0.9616790226,-0.0000012841,2.9797303959\H,0.9299493991,-0.0000166
 613,-0.5496639913\H,-0.9154664785,-0.0000012308,-0.5254963703\H,-0.899
 332669,0.0000111553,1.8937976893\\Version=EM64L-G16RevB.01\State=1-A\H
 F=-152.8853896\RMSD=1.259e-09\RMSF=3.051e-05\ZeroPoint=0.0604784\Therm
 al=0.0687613\Dipole=-0.5391039,0.0000054,0.6232932\DipoleDeriv=0.02795
 3,-0.0000042,-0.0099168,-0.0000047,-0.4726849,0.0000005,-0.0888223,0.0
 00001,-0.4302359,0.7927634,-0.0000018,0.8045776,-0.0000043,0.0883633,-
 0.0000011,0.306596,0.0000029,1.081474,-0.894307,-0.000001,-0.9227933,0
 .0000019,-0.4997273,0.0000038,-0.3456767,-0.0000002,-0.9716119,0.29955
 42,0.0000008,0.0914858,0.0000008,0.395918,-0.0000001,0.044408,-0.00000
 04,0.3228197,-0.0526908,0.0000024,0.0635638,0.0000023,0.1959511,-0.000
 0014,0.0417447,-0.0000013,0.026226,-0.0707887,0.0000015,-0.0728164,0.0
 000018,0.1572674,0.,-0.0364129,-0.0000004,0.0223584,-0.102484,0.000002
 2,0.0458994,0.0000023,0.1349123,-0.0000016,0.0781631,-0.0000016,-0.051
 0302\Polar=21.6056088,-0.0000825,10.4424458,1.7597125,0.0001179,37.046
 4208\PolarDeriv=-0.236363,0.00001,0.3411626,2.5019635,-0.0000934,0.286
 2671,0.000004,-0.8475634,-0.000085,-0.0000936,-8.5339779,0.00002,3.321
 5121,-0.000038,-0.9676083,-1.2575419,-0.0000093,-12.8712905,2.6142832,
 -0.0000189,0.1885088,-1.1764022,0.0000806,0.4871601,-0.0000158,0.82951
 1,0.0000737,0.0000794,7.7538037,-0.0000147,-1.5101126,0.0000279,1.0840
 718,2.2449042,0.0000107,14.0475337,4.2957962,-0.0000119,-0.0990292,1.9
 260534,-0.0000125,2.4018118,-0.0000097,1.3546553,-0.0000184,-0.0000193
 ,-0.2445321,-0.0000219,0.0045525,-0.0000053,-0.2776408,0.3434536,-0.00
 00119,-5.7860249,-0.0289271,0.0000031,0.0319734,0.9907666,-0.0000004,-
 1.598528,0.0000018,0.0515833,0.0000059,0.0000063,1.4600097,0.0000243,0
 .5970268,-0.0000016,-0.0702095,1.0139711,0.000015,9.3947526,5.0902496,
 -0.0000456,0.2379396,-3.6321008,0.0000379,2.2397412,-0.0000263,1.64945
 45,-0.0000324,0.0000286,-0.3217301,-0.0000383,-2.162094,0.0000197,0.02
 63491,1.9539573,-0.0000362,-4.1618522,-5.5921765,0.0000121,-0.3169785,
 -3.7452475,0.0000218,-2.0325932,0.0000117,-1.4725004,0.0000274,0.00002
 82,-0.033864,-0.0000015,-2.1688251,0.0000146,0.0384824,-2.1752465,-0.0
 000024,-3.8721905,-6.1428623,0.0000512,-0.3835767,3.134967,-0.000034,-
 1.7838589,0.0000342,-1.5651403,0.0000287,-0.0000297,-0.0797092,0.00003
 22,1.9179403,-0.0000174,0.1665553,-2.1234977,0.0000342,3.2490719\Hyper
 Polar=-37.3136545,0.0001738,0.6529066,0.0000275,-27.5823286,0.0001201,
 2.5610564,-23.1587389,0.000158,15.9955766\Quadrupole=-0.9932543,-2.302
 166,3.2954203,-0.0000158,-0.449273,0.0000236\PG=C01 [X(C2H4O1)]\NImag=
 0\\0.75101528,-0.00000524,0.11594354,0.00458167,0.00000466,1.01335883,
 -0.13889839,0.00000071,0.02254516,0.71564540,0.00000073,-0.06677966,-0
 .00000333,-0.00000465,0.16406807,0.02712506,-0.00000336,-0.66866880,-0
 .04037160,0.00000499,1.08721367,0.00092889,-0.00000003,-0.02579700,-0.
 31177079,0.00000161,-0.07020684,0.42953458,-0.00000022,0.01314805,-0.0
 0000005,0.00000147,-0.04494504,-0.00000005,-0.00000262,0.01985191,-0.0
 6347020,0.00000026,-0.03469375,-0.13643769,0.00000035,-0.20425108,0.02
 916421,0.00000185,0.80837465,-0.00796733,0.00000006,-0.00140257,0.0068
 2914,-0.00000024,-0.05537683,-0.08583254,0.00000097,0.16294783,0.08606
 174,0.00000004,0.00057616,0.00000002,-0.00000009,-0.00649868,0.0000003
 0,0.00000083,0.00187209,-0.00000240,-0.00000079,0.00177092,-0.00468633
 ,0.00000005,0.00172394,0.01272604,-0.00000014,-0.02522640,0.09395283,-
 0.00000196,-0.57734045,-0.10391952,0.00000206,0.59682541,-0.29925497,0
 .00000290,0.14259868,0.00352338,0.00000003,-0.00264087,0.00122378,-0.0
 0000007,0.00082333,0.00019674,0.,-0.00007416,0.30992725,0.00000286,-0.
 04013408,-0.00000177,0.00000023,0.00835932,-0.00000010,-0.00000009,-0.
 00817451,0.00000005,0.,-0.00091609,0.00000001,-0.00000317,0.02599611,0
 .13559892,-0.00000173,-0.15398953,0.03635385,-0.00000041,-0.01294809,-
 0.00113295,0.00000007,0.00362427,0.00015893,0.,0.00051210,-0.15528596,
 0.00000197,0.15507212,-0.31097639,0.00000157,-0.14109779,0.00404175,-0
 .00000001,0.00525905,0.00143540,0.00000008,0.00045516,0.00012028,0.000
 00002,0.00034406,-0.01674102,0.00000008,-0.01484258,0.32094744,0.00000
 161,-0.03288058,0.00000059,-0.00000023,-0.00088956,-0.00000010,0.00000
 012,0.01073683,-0.00000009,0.,0.00291513,-0.00000002,0.00000024,0.0020
 5149,0.00000019,-0.00000166,0.02575131,-0.13235977,0.00000050,-0.14598
 217,-0.03474434,0.00000024,-0.00923064,0.00255102,-0.00000010,-0.00703
 429,-0.00170913,-0.00000001,-0.00060967,0.01541862,-0.00000007,0.01390
 012,0.15049514,-0.00000061,0.14829477,0.00515292,0.00000003,-0.0014281
 5,-0.27937048,0.00000254,0.13621203,-0.03551932,0.00000039,0.00651736,
 0.00059197,0.,0.00165708,0.00112485,0.00000009,-0.00085021,0.00117254,
 -0.00000007,0.00034846,0.30684753,0.00000021,0.01012656,-0.00000012,0.
 00000256,-0.05331445,-0.00000167,0.00000019,0.00751068,-0.00000003,0.,
 0.00028046,0.,0.00000009,0.01281776,-0.00000009,-0.00000008,-0.0076846
 2,0.00000004,-0.00000298,0.03026360,0.03321066,-0.00000039,-0.01174852
 ,0.13992858,-0.00000171,-0.16688866,-0.02853129,0.00000025,0.01132067,
 -0.00069870,0.00000002,0.00411507,-0.00083964,-0.00000009,-0.00617099,
 -0.00061306,0.00000005,0.00066189,-0.14245657,0.00000187,0.16871054\\-
 0.00008895,0.,-0.00001663,-0.00000960,0.00000005,-0.00003260,0.0000766
 0,0.,0.00000166,0.00000047,0.,0.00003098,0.00003951,0.,0.00003351,0.00
 000484,0.,-0.00001032,-0.00002287,-0.00000001,-0.00000659\\\@


 HAPPINESS IS NOT HAVING WHAT YOU WANT --
 HAPPINESS IS WANTING WHAT YOU HAVE!

              -- FROM MRS. SEVERN'S DESK
 Job cpu time:       0 days  0 hours  0 minutes  7.0 seconds.
 Elapsed time:       0 days  0 hours  0 minutes  1.8 seconds.
 File lengths (MBytes):  RWF=      6 Int=      0 D2E=      0 Chk=      1 Scr=      1
 Normal termination of Gaussian 16 at Mon Feb 12 16:00:13 2024.
