
     Program PWSCF v.6.7MaX starts on  8Apr2024 at 16:25:27 

     This program is part of the open-source Quantum ESPRESSO suite
     for quantum simulation of materials; please cite
         "P. Giannozzi et al., J. Phys.:Condens. Matter 21 395502 (2009);
         "P. Giannozzi et al., J. Phys.:Condens. Matter 29 465901 (2017);
          URL http://www.quantum-espresso.org", 
     in publications or presentations arising from this work. More details at
     http://www.quantum-espresso.org/quote

     Parallel version (MPI), running on     1 processors

     MPI processes distributed on     1 nodes
     Waiting for input...
     Reading input from standard input
Warning: card    ! THIS IS A COMMENT ignored

     Current dimensions of program PWSCF are:
     Max number of different atomic species (ntypx) = 10
     Max number of k-points (npk) =  40000
     Max angular momentum in pseudopotentials (lmaxx) =  3

     Subspace diagonalization in iterative solution of the eigenvalue problem:
     a serial algorithm will be used

     Found symmetry operation: I + (  0.0000  0.0000 -0.5000)
     This is a supercell, fractional translations are disabled
     Message from routine setup:
     using ibrav=0 with symmetry is DISCOURAGED, use correct ibrav instead

     G-vector sticks info
     --------------------
     sticks:   dense  smooth     PW     G-vecs:    dense   smooth      PW
     Sum        4709    4709   1281               242361   242361   34457



     bravais-lattice index     =            0
     lattice parameter (alat)  =      20.5262  a.u.
     unit-cell volume          =    8648.2054 (a.u.)^3
     number of atoms/cell      =           64
     number of atomic types    =            1
     number of electrons       =       256.00
     number of Kohn-Sham states=          128
     kinetic-energy cutoff     =      35.0000  Ry
     charge density cutoff     =     140.0000  Ry
     scf convergence threshold =      1.0E-06
     mixing beta               =       0.7000
     number of iterations used =            8  plain     mixing
     energy convergence thresh.=      1.0E-04
     force convergence thresh. =      1.0E-03
     Exchange-correlation= SLA  PZ   NOGX NOGC
                           (   1   1   0   0   0   0   0)
     nstep                     =           50


     celldm(1)=  20.526205  celldm(2)=   0.000000  celldm(3)=   0.000000
     celldm(4)=   0.000000  celldm(5)=   0.000000  celldm(6)=   0.000000

     crystal axes: (cart. coord. in units of alat)
               a(1) = (   1.000000   0.000000   0.000000 )  
               a(2) = (   0.000000   1.000000   0.000000 )  
               a(3) = (   0.000000   0.000000   1.000000 )  

     reciprocal axes: (cart. coord. in units 2 pi/alat)
               b(1) = (  1.000000  0.000000  0.000000 )  
               b(2) = (  0.000000  1.000000  0.000000 )  
               b(3) = (  0.000000  0.000000  1.000000 )  


     PseudoPot. # 1 for Si read from file:
     ./Si.pz-vbc.UPF
     MD5 check sum: 9f25e6ff280f3123e9b3a84715b2e9c9
     Pseudo is Norm-conserving, Zval =  4.0
     Generated by new atomic code, or converted to UPF format
     Using radial grid of  431 points,  2 beta functions with: 
                l(1) =   0
                l(2) =   1

     atomic species   valence    mass     pseudopotential
        Si             4.00    28.08600     Si( 1.00)

      6 Sym. Ops. (no inversion) found



   Cartesian axes

     site n.     atom                  positions (alat units)
         1           Si  tau(   1) = (   0.0000000   0.0000000   0.0000000  )
         2           Si  tau(   2) = (   0.1250230   0.1250230   0.1250230  )
         3           Si  tau(   3) = (   0.0000000   0.2499540   0.2499540  )
         4           Si  tau(   4) = (   0.1250230   0.3749770   0.3749770  )
         5           Si  tau(   5) = (   0.2499540   0.0000000   0.2499540  )
         6           Si  tau(   6) = (   0.3749770   0.1250230   0.3749770  )
         7           Si  tau(   7) = (   0.2499540   0.2499540   0.0000000  )
         8           Si  tau(   8) = (   0.3749770   0.3749770   0.1250230  )
         9           Si  tau(   9) = (   0.0000000   0.0000000   0.5000000  )
        10           Si  tau(  10) = (   0.1250230   0.1250230   0.6250230  )
        11           Si  tau(  11) = (   0.0000000   0.2499540   0.7499540  )
        12           Si  tau(  12) = (   0.1250230   0.3749770   0.8749770  )
        13           Si  tau(  13) = (   0.2499540   0.0000000   0.7499540  )
        14           Si  tau(  14) = (   0.3749770   0.1250230   0.8749770  )
        15           Si  tau(  15) = (   0.2499540   0.2499540   0.5000000  )
        16           Si  tau(  16) = (   0.3749770   0.3749770   0.6250230  )
        17           Si  tau(  17) = (   0.0000000   0.5000000   0.0000000  )
        18           Si  tau(  18) = (   0.1250230   0.6250230   0.1250230  )
        19           Si  tau(  19) = (   0.0000000   0.7499540   0.2499540  )
        20           Si  tau(  20) = (   0.1250230   0.8749770   0.3749770  )
        21           Si  tau(  21) = (   0.2499540   0.5000000   0.2499540  )
        22           Si  tau(  22) = (   0.3749770   0.6250230   0.3749770  )
        23           Si  tau(  23) = (   0.2499540   0.7499540   0.0000000  )
        24           Si  tau(  24) = (   0.3749770   0.8749770   0.1250230  )
        25           Si  tau(  25) = (   0.0000000   0.5000000   0.5000000  )
        26           Si  tau(  26) = (   0.1250230   0.6250230   0.6250230  )
        27           Si  tau(  27) = (   0.0000000   0.7499540   0.7499540  )
        28           Si  tau(  28) = (   0.1250230   0.8749770   0.8749770  )
        29           Si  tau(  29) = (   0.2499540   0.5000000   0.7499540  )
        30           Si  tau(  30) = (   0.3749770   0.6250230   0.8749770  )
        31           Si  tau(  31) = (   0.2499540   0.7499540   0.5000000  )
        32           Si  tau(  32) = (   0.3749770   0.8749770   0.6250230  )
        33           Si  tau(  33) = (   0.5000000   0.0000000   0.0000000  )
        34           Si  tau(  34) = (   0.6250230   0.1250230   0.1250230  )
        35           Si  tau(  35) = (   0.5000000   0.2499540   0.2499540  )
        36           Si  tau(  36) = (   0.6250230   0.3749770   0.3749770  )
        37           Si  tau(  37) = (   0.7499540   0.0000000   0.2499540  )
        38           Si  tau(  38) = (   0.8749770   0.1250230   0.3749770  )
        39           Si  tau(  39) = (   0.7499540   0.2499540   0.0000000  )
        40           Si  tau(  40) = (   0.8749770   0.3749770   0.1250230  )
        41           Si  tau(  41) = (   0.5000000   0.0000000   0.5000000  )
        42           Si  tau(  42) = (   0.6250230   0.1250230   0.6250230  )
        43           Si  tau(  43) = (   0.5000000   0.2499540   0.7499540  )
        44           Si  tau(  44) = (   0.6250230   0.3749770   0.8749770  )
        45           Si  tau(  45) = (   0.7499540   0.0000000   0.7499540  )
        46           Si  tau(  46) = (   0.8749770   0.1250230   0.8749770  )
        47           Si  tau(  47) = (   0.7499540   0.2499540   0.5000000  )
        48           Si  tau(  48) = (   0.8749770   0.3749770   0.6250230  )
        49           Si  tau(  49) = (   0.5000000   0.5000000   0.0000000  )
        50           Si  tau(  50) = (   0.6250230   0.6250230   0.1250230  )
        51           Si  tau(  51) = (   0.5000000   0.7499540   0.2499540  )
        52           Si  tau(  52) = (   0.6250230   0.8749770   0.3749770  )
        53           Si  tau(  53) = (   0.7499540   0.5000000   0.2499540  )
        54           Si  tau(  54) = (   0.8749770   0.6250230   0.3749770  )
        55           Si  tau(  55) = (   0.7499540   0.7499540   0.0000000  )
        56           Si  tau(  56) = (   0.8749770   0.8749770   0.1250230  )
        57           Si  tau(  57) = (   0.5000000   0.5000000   0.5000000  )
        58           Si  tau(  58) = (   0.6250230   0.6250230   0.6250230  )
        59           Si  tau(  59) = (   0.5000000   0.7499540   0.7499540  )
        60           Si  tau(  60) = (   0.6250230   0.8749770   0.8749770  )
        61           Si  tau(  61) = (   0.7499540   0.5000000   0.7499540  )
        62           Si  tau(  62) = (   0.8749770   0.6250230   0.8749770  )
        63           Si  tau(  63) = (   0.7499540   0.7499540   0.5000000  )
        64           Si  tau(  64) = (   0.8749770   0.8749770   0.6250230  )

     number of k points=     1
                       cart. coord. in units 2pi/alat
        k(    1) = (  -0.5000000  -0.5000000  -0.5000000), wk =   2.0000000

     Dense  grid:   242361 G-vectors     FFT dimensions: (  80,  80,  80)

     Estimated max dynamical RAM per process >     552.95 MB

     Initial potential from superposition of free atoms

     starting charge  255.96826, renormalised to  256.00000
     Starting wfcs are  256 randomized atomic wfcs

     total cpu time spent up to now is        5.7 secs

     Self-consistent Calculation

     iteration #  1     ecut=    35.00 Ry     beta= 0.70
     Davidson diagonalization with overlap
     ethr =  1.00E-02,  avg # of iterations =  2.0

     Threshold (ethr) on eigenvalues was too large:
     Diagonalizing with lowered threshold

     Davidson diagonalization with overlap
     ethr =  7.24E-04,  avg # of iterations =  1.0

     total cpu time spent up to now is       19.7 secs

     total energy              =    -506.78102083 Ry
     estimated scf accuracy    <       2.04980383 Ry

     iteration #  2     ecut=    35.00 Ry     beta= 0.70
     Davidson diagonalization with overlap
     ethr =  8.01E-04,  avg # of iterations =  1.0

     total cpu time spent up to now is       25.3 secs

     total energy              =    -506.88323490 Ry
     estimated scf accuracy    <       0.07702121 Ry

     iteration #  3     ecut=    35.00 Ry     beta= 0.70
     Davidson diagonalization with overlap
     ethr =  3.01E-05,  avg # of iterations =  2.0

     total cpu time spent up to now is       32.7 secs

     total energy              =    -506.89548519 Ry
     estimated scf accuracy    <       0.00212245 Ry

     iteration #  4     ecut=    35.00 Ry     beta= 0.70
     Davidson diagonalization with overlap
     ethr =  8.29E-07,  avg # of iterations =  5.0

     total cpu time spent up to now is       43.3 secs

     total energy              =    -506.89657734 Ry
     estimated scf accuracy    <       0.00001497 Ry

     iteration #  5     ecut=    35.00 Ry     beta= 0.70
     Davidson diagonalization with overlap
     ethr =  5.85E-09,  avg # of iterations =  6.0

     total cpu time spent up to now is       57.3 secs

     total energy              =    -506.89660889 Ry
     estimated scf accuracy    <       0.00007233 Ry

     iteration #  6     ecut=    35.00 Ry     beta= 0.70
     Davidson diagonalization with overlap
     ethr =  5.85E-09,  avg # of iterations =  3.0

     total cpu time spent up to now is       66.3 secs

     total energy              =    -506.89661768 Ry
     estimated scf accuracy    <       0.00000246 Ry

     iteration #  7     ecut=    35.00 Ry     beta= 0.70
     Davidson diagonalization with overlap
     ethr =  9.59E-10,  avg # of iterations =  3.0

     total cpu time spent up to now is       73.9 secs

     End of self-consistent calculation

          k =-0.5000-0.5000-0.5000 ( 30280 PWs)   bands (ev):

    -5.0606  -5.0603  -5.0602  -5.0602  -5.0600  -5.0600  -5.0600  -5.0599
    -3.1363  -3.1363  -3.1362  -3.1362  -3.1362  -3.1362  -3.1345  -3.1345
    -3.1345  -3.1344  -3.1344  -3.1344  -3.1343  -3.1343  -3.1342  -3.1342
    -3.1340  -3.1340  -3.1333  -3.1331  -3.1331  -3.1330  -3.1330  -3.1328
    -0.2934  -0.2934  -0.2934  -0.2933  -0.2933  -0.2933  -0.2930  -0.2930
    -0.2929  -0.2929  -0.2929  -0.2929  -0.2928  -0.2928  -0.2928  -0.2928
    -0.2927  -0.2927  -0.2911  -0.2910  -0.2910  -0.2909  -0.2909  -0.2908
     2.1451   2.1451   2.1451   2.1452   2.1452   2.1452   2.1467   2.1469
     2.5127   2.5127   2.5127   2.5127   2.5128   2.5128   2.5138   2.5138
     2.5138   2.5139   2.5139   2.5139   2.5147   2.5147   2.5147   2.5148
     2.5148   2.5150   2.5154   2.5154   2.5154   2.5154   2.5155   2.5155
     3.8578   3.8578   3.8578   3.8579   3.8579   3.8579   3.8580   3.8580
     3.8580   3.8582   3.8582   3.8582   3.8590   3.8591   3.8591   3.8592
     3.8592   3.8593   3.8593   3.8594   3.8594   3.8595   3.8595   3.8595
     5.3090   5.3090   5.3090   5.3091   5.3091   5.3092   5.3096   5.3096
     5.3097   5.3097   5.3116   5.3117   5.3117   5.3118   5.3118   5.3119

     highest occupied level (ev):     5.3119

!    total energy              =    -506.89661792 Ry
     estimated scf accuracy    <       0.00000038 Ry

     The total energy is the sum of the following terms:
     one-electron contribution =     148.71157008 Ry
     hartree contribution      =      35.61439473 Ry
     xc contribution           =    -153.75540189 Ry
     ewald contribution        =    -537.46718084 Ry

     convergence has been achieved in   7 iterations

     Forces acting on atoms (cartesian axes, Ry/au):

     atom    1 type  1   force =    -0.00003101   -0.00003101   -0.00003101
     atom    2 type  1   force =    -0.00028402   -0.00028402   -0.00028402
     atom    3 type  1   force =    -0.00003088    0.00029877    0.00029877
     atom    4 type  1   force =    -0.00028633    0.00003245    0.00003245
     atom    5 type  1   force =     0.00029877   -0.00003088    0.00029877
     atom    6 type  1   force =     0.00003245   -0.00028633    0.00003245
     atom    7 type  1   force =     0.00029877    0.00029877   -0.00003088
     atom    8 type  1   force =     0.00003245    0.00003245   -0.00028633
     atom    9 type  1   force =    -0.00003012   -0.00003012   -0.00003820
     atom   10 type  1   force =    -0.00028859   -0.00028859   -0.00030431
     atom   11 type  1   force =    -0.00003559    0.00030001    0.00028344
     atom   12 type  1   force =    -0.00028011    0.00003994    0.00004003
     atom   13 type  1   force =     0.00030001   -0.00003559    0.00028344
     atom   14 type  1   force =     0.00003994   -0.00028011    0.00004003
     atom   15 type  1   force =     0.00029287    0.00029287   -0.00004753
     atom   16 type  1   force =     0.00003900    0.00003900   -0.00029301
     atom   17 type  1   force =    -0.00003012   -0.00003820   -0.00003012
     atom   18 type  1   force =    -0.00028859   -0.00030431   -0.00028859
     atom   19 type  1   force =    -0.00003559    0.00028344    0.00030001
     atom   20 type  1   force =    -0.00028011    0.00004003    0.00003994
     atom   21 type  1   force =     0.00029287   -0.00004753    0.00029287
     atom   22 type  1   force =     0.00003900   -0.00029301    0.00003900
     atom   23 type  1   force =     0.00030001    0.00028344   -0.00003559
     atom   24 type  1   force =     0.00003994    0.00004003   -0.00028011
     atom   25 type  1   force =    -0.00003643   -0.00004080   -0.00004080
     atom   26 type  1   force =    -0.00028548   -0.00029362   -0.00029362
     atom   27 type  1   force =    -0.00003215    0.00028544    0.00028544
     atom   28 type  1   force =    -0.00028766    0.00002854    0.00002854
     atom   29 type  1   force =     0.00029934   -0.00003457    0.00029015
     atom   30 type  1   force =     0.00004015   -0.00030046    0.00002836
     atom   31 type  1   force =     0.00029934    0.00029015   -0.00003457
     atom   32 type  1   force =     0.00004015    0.00002836   -0.00030046
     atom   33 type  1   force =    -0.00003820   -0.00003012   -0.00003012
     atom   34 type  1   force =    -0.00030431   -0.00028859   -0.00028859
     atom   35 type  1   force =    -0.00004753    0.00029287    0.00029287
     atom   36 type  1   force =    -0.00029301    0.00003900    0.00003900
     atom   37 type  1   force =     0.00028344   -0.00003559    0.00030001
     atom   38 type  1   force =     0.00004003   -0.00028011    0.00003994
     atom   39 type  1   force =     0.00028344    0.00030001   -0.00003559
     atom   40 type  1   force =     0.00004003    0.00003994   -0.00028011
     atom   41 type  1   force =    -0.00004080   -0.00003643   -0.00004080
     atom   42 type  1   force =    -0.00029362   -0.00028548   -0.00029362
     atom   43 type  1   force =    -0.00003457    0.00029934    0.00029015
     atom   44 type  1   force =    -0.00030046    0.00004015    0.00002836
     atom   45 type  1   force =     0.00028544   -0.00003215    0.00028544
     atom   46 type  1   force =     0.00002854   -0.00028766    0.00002854
     atom   47 type  1   force =     0.00029015    0.00029934   -0.00003457
     atom   48 type  1   force =     0.00002836    0.00004015   -0.00030046
     atom   49 type  1   force =    -0.00004080   -0.00004080   -0.00003643
     atom   50 type  1   force =    -0.00029362   -0.00029362   -0.00028548
     atom   51 type  1   force =    -0.00003457    0.00029015    0.00029934
     atom   52 type  1   force =    -0.00030046    0.00002836    0.00004015
     atom   53 type  1   force =     0.00029015   -0.00003457    0.00029934
     atom   54 type  1   force =     0.00002836   -0.00030046    0.00004015
     atom   55 type  1   force =     0.00028544    0.00028544   -0.00003215
     atom   56 type  1   force =     0.00002854    0.00002854   -0.00028766
     atom   57 type  1   force =    -0.00003006   -0.00003006   -0.00003006
     atom   58 type  1   force =    -0.00029589   -0.00029589   -0.00029589
     atom   59 type  1   force =    -0.00003441    0.00028201    0.00028201
     atom   60 type  1   force =    -0.00030081    0.00003242    0.00003242
     atom   61 type  1   force =     0.00028201   -0.00003441    0.00028201
     atom   62 type  1   force =     0.00003242   -0.00030081    0.00003242
     atom   63 type  1   force =     0.00028201    0.00028201   -0.00003441
     atom   64 type  1   force =     0.00003242    0.00003242   -0.00030081

     Total force =     0.002878     Total SCF correction =     0.000750
     SCF correction compared to forces is large: reduce conv_thr to get better values

     BFGS Geometry Optimization
     Energy error            =      0.0E+00
     Gradient error          =      3.0E-04

     bfgs converged in   1 scf cycles and   0 bfgs steps
     (criteria: energy <  1.0E-04 Ry, force <  1.0E-03 Ry/Bohr)

     End of BFGS Geometry Optimization

     Final energy   =    -506.8966179159 Ry
Begin final coordinates

ATOMIC_POSITIONS (angstrom)
Si            0.0000000000        0.0000000000        0.0000000000
Si            1.3580000000        1.3580000000        1.3580000000
Si            0.0000000000        2.7150000000        2.7150000000
Si            1.3580000000        4.0730000000        4.0730000000
Si            2.7150000000        0.0000000000        2.7150000000
Si            4.0730000000        1.3580000000        4.0730000000
Si            2.7150000000        2.7150000000        0.0000000000
Si            4.0730000000        4.0730000000        1.3580000000
Si            0.0000000000        0.0000000000        5.4310000000
Si            1.3580000000        1.3580000000        6.7890000000
Si            0.0000000000        2.7150000000        8.1460000000
Si            1.3580000000        4.0730000000        9.5040000000
Si            2.7150000000        0.0000000000        8.1460000000
Si            4.0730000000        1.3580000000        9.5040000000
Si            2.7150000000        2.7150000000        5.4310000000
Si            4.0730000000        4.0730000000        6.7890000000
Si            0.0000000000        5.4310000000        0.0000000000
Si            1.3580000000        6.7890000000        1.3580000000
Si            0.0000000000        8.1460000000        2.7150000000
Si            1.3580000000        9.5040000000        4.0730000000
Si            2.7150000000        5.4310000000        2.7150000000
Si            4.0730000000        6.7890000000        4.0730000000
Si            2.7150000000        8.1460000000        0.0000000000
Si            4.0730000000        9.5040000000        1.3580000000
Si            0.0000000000        5.4310000000        5.4310000000
Si            1.3580000000        6.7890000000        6.7890000000
Si            0.0000000000        8.1460000000        8.1460000000
Si            1.3580000000        9.5040000000        9.5040000000
Si            2.7150000000        5.4310000000        8.1460000000
Si            4.0730000000        6.7890000000        9.5040000000
Si            2.7150000000        8.1460000000        5.4310000000
Si            4.0730000000        9.5040000000        6.7890000000
Si            5.4310000000        0.0000000000        0.0000000000
Si            6.7890000000        1.3580000000        1.3580000000
Si            5.4310000000        2.7150000000        2.7150000000
Si            6.7890000000        4.0730000000        4.0730000000
Si            8.1460000000        0.0000000000        2.7150000000
Si            9.5040000000        1.3580000000        4.0730000000
Si            8.1460000000        2.7150000000        0.0000000000
Si            9.5040000000        4.0730000000        1.3580000000
Si            5.4310000000        0.0000000000        5.4310000000
Si            6.7890000000        1.3580000000        6.7890000000
Si            5.4310000000        2.7150000000        8.1460000000
Si            6.7890000000        4.0730000000        9.5040000000
Si            8.1460000000        0.0000000000        8.1460000000
Si            9.5040000000        1.3580000000        9.5040000000
Si            8.1460000000        2.7150000000        5.4310000000
Si            9.5040000000        4.0730000000        6.7890000000
Si            5.4310000000        5.4310000000        0.0000000000
Si            6.7890000000        6.7890000000        1.3580000000
Si            5.4310000000        8.1460000000        2.7150000000
Si            6.7890000000        9.5040000000        4.0730000000
Si            8.1460000000        5.4310000000        2.7150000000
Si            9.5040000000        6.7890000000        4.0730000000
Si            8.1460000000        8.1460000000        0.0000000000
Si            9.5040000000        9.5040000000        1.3580000000
Si            5.4310000000        5.4310000000        5.4310000000
Si            6.7890000000        6.7890000000        6.7890000000
Si            5.4310000000        8.1460000000        8.1460000000
Si            6.7890000000        9.5040000000        9.5040000000
Si            8.1460000000        5.4310000000        8.1460000000
Si            9.5040000000        6.7890000000        9.5040000000
Si            8.1460000000        8.1460000000        5.4310000000
Si            9.5040000000        9.5040000000        6.7890000000
End final coordinates



     Writing output data file ./silicon.save/

     init_run     :      5.27s CPU      5.69s WALL (       1 calls)
     electrons    :     65.85s CPU     68.19s WALL (       1 calls)
     forces       :      6.16s CPU      6.24s WALL (       1 calls)

     Called by init_run:
     wfcinit      :      4.99s CPU      5.35s WALL (       1 calls)
     potinit      :      0.07s CPU      0.09s WALL (       1 calls)
     hinit0       :      0.10s CPU      0.12s WALL (       1 calls)

     Called by electrons:
     c_bands      :     59.47s CPU     61.52s WALL (       8 calls)
     sum_band     :      5.66s CPU      5.75s WALL (       8 calls)
     v_of_rho     :      0.40s CPU      0.42s WALL (       8 calls)
     mix_rho      :      0.29s CPU      0.43s WALL (       8 calls)

     Called by c_bands:
     init_us_2    :      0.59s CPU      0.68s WALL (      17 calls)
     cegterg      :     58.84s CPU     60.88s WALL (       8 calls)

     Called by *egterg:
     cdiaghg      :      0.58s CPU      0.59s WALL (      30 calls)
     h_psi        :     41.97s CPU     43.04s WALL (      32 calls)
     g_psi        :      0.19s CPU      0.19s WALL (      23 calls)

     Called by h_psi:
     h_psi:calbec :      5.70s CPU      5.85s WALL (      32 calls)
     vloc_psi     :     30.04s CPU     30.32s WALL (      32 calls)
     add_vuspsi   :      5.90s CPU      6.05s WALL (      32 calls)

     General routines
     calbec       :      6.56s CPU      6.71s WALL (      36 calls)
     fft          :      0.12s CPU      0.13s WALL (      26 calls)
     ffts         :      0.03s CPU      0.03s WALL (       8 calls)
     fftw         :     28.00s CPU     28.11s WALL (    7648 calls)

     Parallel routines

     PWSCF        :   1m17.32s CPU   1m20.23s WALL


   This run was terminated on:  16:26:47   8Apr2024            

=------------------------------------------------------------------------------=
   JOB DONE.
=------------------------------------------------------------------------------=
