
     Program PWSCF v.6.7MaX starts on  8Apr2024 at 18:32:34 

     This program is part of the open-source Quantum ESPRESSO suite
     for quantum simulation of materials; please cite
         "P. Giannozzi et al., J. Phys.:Condens. Matter 21 395502 (2009);
         "P. Giannozzi et al., J. Phys.:Condens. Matter 29 465901 (2017);
          URL http://www.quantum-espresso.org", 
     in publications or presentations arising from this work. More details at
     http://www.quantum-espresso.org/quote

     Parallel version (MPI), running on     1 processors

     MPI processes distributed on     1 nodes
     Waiting for input...
     Reading input from standard input

     Current dimensions of program PWSCF are:
     Max number of different atomic species (ntypx) = 10
     Max number of k-points (npk) =  40000
     Max angular momentum in pseudopotentials (lmaxx) =  3

     Subspace diagonalization in iterative solution of the eigenvalue problem:
     a serial algorithm will be used


     G-vector sticks info
     --------------------
     sticks:   dense  smooth     PW     G-vecs:    dense   smooth      PW
     Sum        9281    9281   2449              1121485  1121485  152141



     bravais-lattice index     =            0
     lattice parameter (alat)  =      28.8637  a.u.
     unit-cell volume          =   40076.7353 (a.u.)^3
     number of atoms/cell      =           64
     number of atomic types    =            1
     number of electrons       =       256.00
     number of Kohn-Sham states=          128
     kinetic-energy cutoff     =      35.0000  Ry
     charge density cutoff     =     140.0000  Ry
     scf convergence threshold =      1.0E-06
     mixing beta               =       0.7000
     number of iterations used =            8  plain     mixing
     energy convergence thresh.=      1.0E-04
     force convergence thresh. =      1.0E-03
     Exchange-correlation= SLA  PZ   NOGX NOGC
                           (   1   1   0   0   0   0   0)
     nstep                     =           50


     celldm(1)=  28.863677  celldm(2)=   0.000000  celldm(3)=   0.000000
     celldm(4)=   0.000000  celldm(5)=   0.000000  celldm(6)=   0.000000

     crystal axes: (cart. coord. in units of alat)
               a(1) = (   1.000000   0.000000   0.000000 )  
               a(2) = (   0.000000   1.000000   0.000000 )  
               a(3) = (   0.000000   0.000000   1.666623 )  

     reciprocal axes: (cart. coord. in units 2 pi/alat)
               b(1) = (  1.000000  0.000000  0.000000 )  
               b(2) = (  0.000000  1.000000  0.000000 )  
               b(3) = (  0.000000  0.000000  0.600016 )  


     PseudoPot. # 1 for Si read from file:
     ./Si.pz-vbc.UPF
     MD5 check sum: 9f25e6ff280f3123e9b3a84715b2e9c9
     Pseudo is Norm-conserving, Zval =  4.0
     Generated by new atomic code, or converted to UPF format
     Using radial grid of  431 points,  2 beta functions with: 
                l(1) =   0
                l(2) =   1

     atomic species   valence    mass     pseudopotential
        Si             4.00    28.08600     Si( 1.00)

     No symmetry found



   Cartesian axes

     site n.     atom                  positions (alat units)
         1           Si  tau(   1) = (   0.1249960   0.1249960   0.6547073  )
         2           Si  tau(   2) = (   0.3749879   0.1249960   0.6547073  )
         3           Si  tau(   3) = (   0.6249798   0.1249960   0.6547073  )
         4           Si  tau(   4) = (   0.8749717   0.1249960   0.6547073  )
         5           Si  tau(   5) = (   0.1249960   0.3749879   0.6547073  )
         6           Si  tau(   6) = (   0.3749879   0.3749879   0.6547073  )
         7           Si  tau(   7) = (   0.6249798   0.3749879   0.6547073  )
         8           Si  tau(   8) = (   0.8749717   0.3749879   0.6547073  )
         9           Si  tau(   9) = (   0.1249960   0.6249798   0.6547073  )
        10           Si  tau(  10) = (   0.3749879   0.6249798   0.6547073  )
        11           Si  tau(  11) = (   0.6249798   0.6249798   0.6547073  )
        12           Si  tau(  12) = (   0.8749717   0.6249798   0.6547073  )
        13           Si  tau(  13) = (   0.1249960   0.8749717   0.6547073  )
        14           Si  tau(  14) = (   0.3749879   0.8749717   0.6547073  )
        15           Si  tau(  15) = (   0.6249798   0.8749717   0.6547073  )
        16           Si  tau(  16) = (   0.8749717   0.8749717   0.6547073  )
        17           Si  tau(  17) = (   0.0000000   0.1249960   0.7430928  )
        18           Si  tau(  18) = (   0.2499919   0.1249960   0.7430928  )
        19           Si  tau(  19) = (   0.4999838   0.1249960   0.7430928  )
        20           Si  tau(  20) = (   0.7499758   0.1249960   0.7430928  )
        21           Si  tau(  21) = (   0.0000000   0.3749879   0.7430928  )
        22           Si  tau(  22) = (   0.2499919   0.3749879   0.7430928  )
        23           Si  tau(  23) = (   0.4999838   0.3749879   0.7430928  )
        24           Si  tau(  24) = (   0.7499758   0.3749879   0.7430928  )
        25           Si  tau(  25) = (   0.0000000   0.6249798   0.7430928  )
        26           Si  tau(  26) = (   0.2499919   0.6249798   0.7430928  )
        27           Si  tau(  27) = (   0.4999838   0.6249798   0.7430928  )
        28           Si  tau(  28) = (   0.7499758   0.6249798   0.7430928  )
        29           Si  tau(  29) = (   0.0000000   0.8749717   0.7430928  )
        30           Si  tau(  30) = (   0.2499919   0.8749717   0.7430928  )
        31           Si  tau(  31) = (   0.4999838   0.8749717   0.7430928  )
        32           Si  tau(  32) = (   0.7499758   0.8749717   0.7430928  )
        33           Si  tau(  33) = (   0.0000000   0.0000000   0.8314783  )
        34           Si  tau(  34) = (   0.2499919   0.0000000   0.8314783  )
        35           Si  tau(  35) = (   0.4999838   0.0000000   0.8314783  )
        36           Si  tau(  36) = (   0.7499758   0.0000000   0.8314783  )
        37           Si  tau(  37) = (   0.0000000   0.2499919   0.8314783  )
        38           Si  tau(  38) = (   0.2499919   0.2499919   0.8314783  )
        39           Si  tau(  39) = (   0.4999838   0.2499919   0.8314783  )
        40           Si  tau(  40) = (   0.7499758   0.2499919   0.8314783  )
        41           Si  tau(  41) = (   0.0000000   0.4999838   0.8314783  )
        42           Si  tau(  42) = (   0.2499919   0.4999838   0.8314783  )
        43           Si  tau(  43) = (   0.4999838   0.4999838   0.8314783  )
        44           Si  tau(  44) = (   0.7499758   0.4999838   0.8314783  )
        45           Si  tau(  45) = (   0.0000000   0.7499758   0.8314783  )
        46           Si  tau(  46) = (   0.2499919   0.7499758   0.8314783  )
        47           Si  tau(  47) = (   0.4999838   0.7499758   0.8314783  )
        48           Si  tau(  48) = (   0.7499758   0.7499758   0.8314783  )
        49           Si  tau(  49) = (   0.1249960   0.0000000   0.9198638  )
        50           Si  tau(  50) = (   0.3749879   0.0000000   0.9198638  )
        51           Si  tau(  51) = (   0.6249798   0.0000000   0.9198638  )
        52           Si  tau(  52) = (   0.8749717   0.0000000   0.9198638  )
        53           Si  tau(  53) = (   0.1249960   0.2499919   0.9198638  )
        54           Si  tau(  54) = (   0.3749879   0.2499919   0.9198638  )
        55           Si  tau(  55) = (   0.6249798   0.2499919   0.9198638  )
        56           Si  tau(  56) = (   0.8749717   0.2499919   0.9198638  )
        57           Si  tau(  57) = (   0.1249960   0.4999838   0.9198638  )
        58           Si  tau(  58) = (   0.3749879   0.4999838   0.9198638  )
        59           Si  tau(  59) = (   0.6249798   0.4999838   0.9198638  )
        60           Si  tau(  60) = (   0.8749717   0.4999838   0.9198638  )
        61           Si  tau(  61) = (   0.1249960   0.7499758   0.9198638  )
        62           Si  tau(  62) = (   0.3749879   0.7499758   0.9198638  )
        63           Si  tau(  63) = (   0.6249798   0.7499758   0.9198638  )
        64           Si  tau(  64) = (   0.8749717   0.7499758   0.9198638  )

     number of k points=     1
                       cart. coord. in units 2pi/alat
        k(    1) = (  -0.5000000  -0.5000000  -0.3000079), wk =   2.0000000

     Dense  grid:  1121485 G-vectors     FFT dimensions: ( 120, 120, 192)

     Estimated max dynamical RAM per process >       2.52 GB

     Initial potential from superposition of free atoms

     starting charge  255.96826, renormalised to  256.00000

     negative rho (up, down):  7.675E-05 0.000E+00
     Starting wfcs are  256 randomized atomic wfcs

     total cpu time spent up to now is       33.3 secs

     Self-consistent Calculation

     iteration #  1     ecut=    35.00 Ry     beta= 0.70
     Davidson diagonalization with overlap
     ethr =  1.00E-02,  avg # of iterations =  2.0

     Threshold (ethr) on eigenvalues was too large:
     Diagonalizing with lowered threshold

     Davidson diagonalization with overlap
     ethr =  7.40E-04,  avg # of iterations =  2.0

     total cpu time spent up to now is      115.4 secs

     total energy              =    -501.96255375 Ry
     estimated scf accuracy    <       2.32501307 Ry

     iteration #  2     ecut=    35.00 Ry     beta= 0.70
     Davidson diagonalization with overlap
     ethr =  9.08E-04,  avg # of iterations =  3.0

     total cpu time spent up to now is      164.4 secs

     total energy              =    -501.97675562 Ry
     estimated scf accuracy    <       3.09671562 Ry

     iteration #  3     ecut=    35.00 Ry     beta= 0.70
     Davidson diagonalization with overlap
     ethr =  9.08E-04,  avg # of iterations =  3.0

     total cpu time spent up to now is      206.4 secs

     total energy              =    -502.69025780 Ry
     estimated scf accuracy    <       0.07640568 Ry

     iteration #  4     ecut=    35.00 Ry     beta= 0.70
     Davidson diagonalization with overlap
     ethr =  2.98E-05,  avg # of iterations =  5.0

     total cpu time spent up to now is      252.0 secs

     total energy              =    -502.69054186 Ry
     estimated scf accuracy    <       0.05113269 Ry

     iteration #  5     ecut=    35.00 Ry     beta= 0.70
     Davidson diagonalization with overlap
     ethr =  2.00E-05,  avg # of iterations =  9.0

     total cpu time spent up to now is      305.9 secs

     total energy              =    -502.67828726 Ry
     estimated scf accuracy    <       0.31095066 Ry

     iteration #  6     ecut=    35.00 Ry     beta= 0.70
     Davidson diagonalization with overlap
     ethr =  2.00E-05,  avg # of iterations =  7.0

     total cpu time spent up to now is      354.1 secs

     total energy              =    -502.69673920 Ry
     estimated scf accuracy    <       0.00674437 Ry

     iteration #  7     ecut=    35.00 Ry     beta= 0.70
     Davidson diagonalization with overlap
     ethr =  2.63E-06,  avg # of iterations =  8.0

     total cpu time spent up to now is      410.9 secs

     total energy              =    -502.69704954 Ry
     estimated scf accuracy    <       0.02669871 Ry

     iteration #  8     ecut=    35.00 Ry     beta= 0.70
     Davidson diagonalization with overlap
     ethr =  2.63E-06,  avg # of iterations =  6.0

     total cpu time spent up to now is      455.4 secs

     total energy              =    -502.69863416 Ry
     estimated scf accuracy    <       0.00425009 Ry

     iteration #  9     ecut=    35.00 Ry     beta= 0.70
     Davidson diagonalization with overlap
     ethr =  1.66E-06,  avg # of iterations =  5.0

     total cpu time spent up to now is      490.9 secs

     total energy              =    -502.69872801 Ry
     estimated scf accuracy    <       0.00199531 Ry

     iteration # 10     ecut=    35.00 Ry     beta= 0.70
     Davidson diagonalization with overlap
     ethr =  7.79E-07,  avg # of iterations =  2.0

     total cpu time spent up to now is      524.7 secs

     total energy              =    -502.69874810 Ry
     estimated scf accuracy    <       0.00111376 Ry

     iteration # 11     ecut=    35.00 Ry     beta= 0.70
     Davidson diagonalization with overlap
     ethr =  4.35E-07,  avg # of iterations =  5.0

     total cpu time spent up to now is      561.7 secs

     total energy              =    -502.69880434 Ry
     estimated scf accuracy    <       0.00027697 Ry

     iteration # 12     ecut=    35.00 Ry     beta= 0.70
     Davidson diagonalization with overlap
     ethr =  1.08E-07,  avg # of iterations =  7.0

     total cpu time spent up to now is      610.1 secs

     total energy              =    -502.69886676 Ry
     estimated scf accuracy    <       0.00031963 Ry

     iteration # 13     ecut=    35.00 Ry     beta= 0.70
     Davidson diagonalization with overlap
     ethr =  1.08E-07,  avg # of iterations =  2.0

     total cpu time spent up to now is      643.5 secs

     total energy              =    -502.69884419 Ry
     estimated scf accuracy    <       0.00025926 Ry

     iteration # 14     ecut=    35.00 Ry     beta= 0.70
     Davidson diagonalization with overlap
     ethr =  1.01E-07,  avg # of iterations =  5.0

     total cpu time spent up to now is      680.3 secs

     total energy              =    -502.69884718 Ry
     estimated scf accuracy    <       0.00009796 Ry

     iteration # 15     ecut=    35.00 Ry     beta= 0.70
     Davidson diagonalization with overlap
     ethr =  3.83E-08,  avg # of iterations =  7.0

     total cpu time spent up to now is      725.5 secs

     total energy              =    -502.69885933 Ry
     estimated scf accuracy    <       0.00004295 Ry

     iteration # 16     ecut=    35.00 Ry     beta= 0.70
     Davidson diagonalization with overlap
     ethr =  1.68E-08,  avg # of iterations =  2.0

     total cpu time spent up to now is      761.0 secs

     total energy              =    -502.69885762 Ry
     estimated scf accuracy    <       0.00002882 Ry

     iteration # 17     ecut=    35.00 Ry     beta= 0.70
     Davidson diagonalization with overlap
     ethr =  1.13E-08,  avg # of iterations =  6.0

     total cpu time spent up to now is      808.8 secs

     total energy              =    -502.69885565 Ry
     estimated scf accuracy    <       0.00005266 Ry

     iteration # 18     ecut=    35.00 Ry     beta= 0.70
     Davidson diagonalization with overlap
     ethr =  1.13E-08,  avg # of iterations =  8.0

     total cpu time spent up to now is      854.7 secs

     total energy              =    -502.69885948 Ry
     estimated scf accuracy    <       0.00001118 Ry

     iteration # 19     ecut=    35.00 Ry     beta= 0.70
     Davidson diagonalization with overlap
     ethr =  4.37E-09,  avg # of iterations =  4.0

     total cpu time spent up to now is      889.6 secs

     total energy              =    -502.69885922 Ry
     estimated scf accuracy    <       0.00000601 Ry

     iteration # 20     ecut=    35.00 Ry     beta= 0.70
     Davidson diagonalization with overlap
     ethr =  2.35E-09,  avg # of iterations =  9.0

     total cpu time spent up to now is      938.6 secs

     total energy              =    -502.69885943 Ry
     estimated scf accuracy    <       0.00001753 Ry

     iteration # 21     ecut=    35.00 Ry     beta= 0.70
     Davidson diagonalization with overlap
     ethr =  2.35E-09,  avg # of iterations =  7.0

     total cpu time spent up to now is      979.7 secs

     total energy              =    -502.69886022 Ry
     estimated scf accuracy    <       0.00000359 Ry

     iteration # 22     ecut=    35.00 Ry     beta= 0.70
     Davidson diagonalization with overlap
     ethr =  1.40E-09,  avg # of iterations =  3.0

     total cpu time spent up to now is     1013.6 secs

     total energy              =    -502.69886021 Ry
     estimated scf accuracy    <       0.00000253 Ry

     iteration # 23     ecut=    35.00 Ry     beta= 0.70
     Davidson diagonalization with overlap
     ethr =  9.90E-10,  avg # of iterations =  7.0

     total cpu time spent up to now is     1049.1 secs

     total energy              =    -502.69886019 Ry
     estimated scf accuracy    <       0.00000129 Ry

     iteration # 24     ecut=    35.00 Ry     beta= 0.70
     Davidson diagonalization with overlap
     ethr =  5.03E-10,  avg # of iterations =  8.0

     total cpu time spent up to now is     1089.6 secs

     End of self-consistent calculation

          k =-0.5000-0.5000-0.3000 (140200 PWs)   bands (ev):

   -13.6851 -13.6848 -13.6846 -13.6843 -12.7528 -12.7524 -12.7524 -12.7521
   -12.7354 -12.7351 -12.7349 -12.7346 -11.7487 -11.7483 -11.7483 -11.7480
   -11.5467 -11.5466 -11.5461 -11.5460 -11.4457 -11.4456 -11.4451 -11.4450
   -10.4180 -10.4179 -10.4175 -10.4174 -10.3111 -10.3110 -10.3107 -10.3106
    -9.9248  -9.9245  -9.9245  -9.9242  -9.2489  -9.2487  -9.2486  -9.2484
    -8.4307  -8.4306  -8.4304  -8.4303  -8.4020  -8.4019  -8.4017  -8.4016
    -8.0661  -8.0660  -8.0659  -8.0657  -7.8904  -7.8903  -7.8900  -7.8900
    -7.8876  -7.8875  -7.8873  -7.8872  -6.3306  -6.3306  -6.3304  -6.3303
    -5.8252  -5.8251  -5.8249  -5.8248  -5.7999  -5.7998  -5.7996  -5.7995
    -5.7496  -5.7494  -5.7493  -5.7491  -5.4971  -5.4969  -5.4968  -5.4966
    -5.0697  -5.0695  -5.0695  -5.0694  -5.0178  -5.0176  -5.0176  -5.0174
    -4.7711  -4.7709  -4.7709  -4.7707  -4.6690  -4.6689  -4.6689  -4.6688
    -4.1755  -4.1754  -4.1752  -4.1750  -3.9744  -3.9743  -3.9742  -3.9741
    -3.7023  -3.7022  -3.7022  -3.7021  -3.6784  -3.6783  -3.6782  -3.6782
    -3.6135  -3.6134  -3.6132  -3.6131  -3.4385  -3.4385  -3.4382  -3.4382
    -3.1610  -3.1609  -3.1609  -3.1608  -3.1244  -3.1243  -3.1242  -3.1241

     highest occupied level (ev):    -3.1241

!    total energy              =    -502.69886001 Ry
     estimated scf accuracy    <       0.00000035 Ry

     The total energy is the sum of the following terms:
     one-electron contribution =   -4713.87895068 Ry
     hartree contribution      =    2384.12120178 Ry
     xc contribution           =    -146.37880962 Ry
     ewald contribution        =    1973.43769851 Ry

     convergence has been achieved in  24 iterations

     Forces acting on atoms (cartesian axes, Ry/au):

     atom    1 type  1   force =    -0.00000205    0.00001957    0.00825483
     atom    2 type  1   force =     0.00000170    0.00001377    0.00825457
     atom    3 type  1   force =    -0.00000038    0.00001885    0.00825649
     atom    4 type  1   force =     0.00009878    0.00001520    0.00831413
     atom    5 type  1   force =    -0.00000007   -0.00000895    0.00825725
     atom    6 type  1   force =     0.00000282    0.00000009    0.00825696
     atom    7 type  1   force =    -0.00000132   -0.00000190    0.00825986
     atom    8 type  1   force =     0.00009827   -0.00000187    0.00831489
     atom    9 type  1   force =    -0.00000315    0.00000168    0.00825434
     atom   10 type  1   force =     0.00000339    0.00000147    0.00825673
     atom   11 type  1   force =     0.00000238   -0.00000051    0.00825883
     atom   12 type  1   force =     0.00009766   -0.00000174    0.00830929
     atom   13 type  1   force =    -0.00000545   -0.00001392    0.00825883
     atom   14 type  1   force =     0.00000100   -0.00001597    0.00825906
     atom   15 type  1   force =     0.00000174   -0.00001936    0.00825798
     atom   16 type  1   force =     0.00010035   -0.00001274    0.00831551
     atom   17 type  1   force =    -0.00010001   -0.00000185   -0.01355723
     atom   18 type  1   force =    -0.00000301   -0.00000111   -0.01351661
     atom   19 type  1   force =     0.00000341    0.00000003   -0.01351840
     atom   20 type  1   force =     0.00000326   -0.00000497   -0.01350947
     atom   21 type  1   force =    -0.00010070   -0.00000114   -0.01355731
     atom   22 type  1   force =    -0.00000544   -0.00000072   -0.01351461
     atom   23 type  1   force =     0.00000851    0.00000193   -0.01351455
     atom   24 type  1   force =     0.00000262    0.00000353   -0.01350890
     atom   25 type  1   force =    -0.00011508    0.00000261   -0.01355581
     atom   26 type  1   force =     0.00000163    0.00000057   -0.01351214
     atom   27 type  1   force =     0.00001765   -0.00000142   -0.01351645
     atom   28 type  1   force =    -0.00000512    0.00000277   -0.01350835
     atom   29 type  1   force =    -0.00010771    0.00010220   -0.01349010
     atom   30 type  1   force =     0.00000164    0.00010433   -0.01344966
     atom   31 type  1   force =     0.00000873    0.00010445   -0.01345158
     atom   32 type  1   force =     0.00000013    0.00010217   -0.01344175
     atom   33 type  1   force =    -0.00010031   -0.00010829    0.01349270
     atom   34 type  1   force =     0.00000700   -0.00010606    0.01344338
     atom   35 type  1   force =    -0.00000589   -0.00010586    0.01344919
     atom   36 type  1   force =    -0.00000249   -0.00010874    0.01344690
     atom   37 type  1   force =    -0.00008621   -0.00000099    0.01356125
     atom   38 type  1   force =    -0.00000816    0.00000214    0.01350911
     atom   39 type  1   force =    -0.00000634    0.00000174    0.01350824
     atom   40 type  1   force =    -0.00000154    0.00000160    0.01350919
     atom   41 type  1   force =    -0.00009536    0.00000211    0.01356510
     atom   42 type  1   force =     0.00000049   -0.00000329    0.01351131
     atom   43 type  1   force =    -0.00000060   -0.00000136    0.01351394
     atom   44 type  1   force =    -0.00000616    0.00000548    0.01351371
     atom   45 type  1   force =    -0.00009411    0.00000605    0.01356256
     atom   46 type  1   force =    -0.00000193    0.00000452    0.01350884
     atom   47 type  1   force =     0.00000027    0.00000246    0.01351517
     atom   48 type  1   force =    -0.00000463    0.00000010    0.01351464
     atom   49 type  1   force =    -0.00000751    0.00001736   -0.00825898
     atom   50 type  1   force =     0.00000148    0.00001043   -0.00825986
     atom   51 type  1   force =     0.00000613    0.00001243   -0.00825728
     atom   52 type  1   force =     0.00010043    0.00001259   -0.00831386
     atom   53 type  1   force =    -0.00000373    0.00000103   -0.00825703
     atom   54 type  1   force =     0.00000300    0.00000021   -0.00825646
     atom   55 type  1   force =     0.00000113    0.00000152   -0.00825366
     atom   56 type  1   force =     0.00010131    0.00000263   -0.00831113
     atom   57 type  1   force =    -0.00000655   -0.00000113   -0.00825428
     atom   58 type  1   force =     0.00000439    0.00000581   -0.00826069
     atom   59 type  1   force =     0.00000365    0.00000409   -0.00825904
     atom   60 type  1   force =     0.00009868   -0.00000131   -0.00831496
     atom   61 type  1   force =    -0.00000828   -0.00001552   -0.00825611
     atom   62 type  1   force =     0.00000224   -0.00001633   -0.00825886
     atom   63 type  1   force =     0.00000548   -0.00001819   -0.00825508
     atom   64 type  1   force =     0.00009793   -0.00001428   -0.00831458

     Total force =     0.089601     Total SCF correction =     0.000904

     BFGS Geometry Optimization
     Energy error            =      0.0E+00
     Gradient error          =      1.4E-02

     number of scf cycles    =   1
     number of bfgs steps    =   0

     energy   new            =    -502.6988600101 Ry

     new trust radius        =       0.0135654355 bohr
     new conv_thr            =       0.0000010000 Ry


ATOMIC_POSITIONS (angstrom)
Si            1.9091872254        1.9091986636       10.0043682676
Si            5.7275658304        1.9091955979       10.0043681306
Si            9.5459413500        1.9091982859       10.0043691439
Si           13.3643704295        1.9091963553       10.0043996479
Si            1.9091882749        5.7275601954       10.0043695502
Si            5.7275664221        5.7275649754       10.0043693968
Si            9.5459408523        5.7275639260       10.0043709310
Si           13.3643701613        5.7275639430       10.0044000491
Si            1.9091866451        9.5459424371       10.0043680109
Si            5.7275667251        9.5459423260       10.0043692736
Si            9.5459428089        9.5459412811       10.0043703843
Si           13.3643698398        9.5459406286       10.0043970852
Si            1.9091854269       13.3643107942       10.0043703853
Si            5.7275654571       13.3643097116       10.0043705039
Si            9.5459424688       13.3643079148       10.0043699372
Si           13.3643712621       13.3643114169       10.0044003784
Si           -0.0000529229        1.9091873290       11.3428258232
Si            3.8183750258        1.9091877233       11.3428473189
Si            7.6367550451        1.9091883250       11.3428463688
Si           11.4551315848        1.9091856807       11.3428510943
Si           -0.0000532857        5.7275643274       11.3428257780
Si            3.8183737417        5.7275645491       11.3428483770
Si            7.6367577446        5.7275659504       11.3428484073
Si           11.4551312452        5.7275667992       11.3428513984
Si           -0.0000608981        9.5459429291       11.3428265756
Si            3.8183774846        9.5459418525       11.3428496851
Si            7.6367625784        9.5459407965       11.3428474025
Si           11.4551271529        9.5459430150       11.3428516880
Si           -0.0000569978       13.3643722411       11.3428613464
Si            3.8183774852       13.3643733716       11.3428827465
Si            7.6367578615       13.3643734308       11.3428817289
Si           11.4551299312       13.3643722270       11.3428869344
Si           -0.0000530807       -0.0000573028       12.7071400282
Si            3.8183803262       -0.0000561262       12.7071139317
Si            7.6367501235       -0.0000560187       12.7071170036
Si           11.4551285412       -0.0000575445       12.7071157911
Si           -0.0000456179        3.8183760942       12.7071763059
Si            3.8183723007        3.8183777530       12.7071487109
Si            7.6367498874        3.8183775398       12.7071482540
Si           11.4551290448        3.8183774678       12.7071487556
Si           -0.0000504598        7.6367543544       12.7071783419
Si            3.8183768783        7.6367515008       12.7071498799
Si            7.6367529244        7.6367525204       12.7071512701
Si           11.4551265992        7.6367561422       12.7071511469
Si           -0.0000497998       11.4551330628       12.7071769960
Si            3.8183755961       11.4551322497       12.7071485700
Si            7.6367533815       11.4551311603       12.7071519206
Si           11.4551274108       11.4551299123       12.7071516417
Si            1.9091843366        0.0000091883       14.0456295352
Si            5.7275657127        0.0000055201       14.0456290708
Si            9.5459447942        0.0000065786       14.0456304351
Si           13.3643713038        0.0000066629       14.0456004945
Si            1.9091863371        3.8183771671       14.0456305689
Si            5.7275665159        3.8183767288       14.0456308693
Si            9.5459421458        3.8183774251       14.0456323517
Si           13.3643717726        3.8183780094       14.0456019410
Si            1.9091848418        7.6367526425       14.0456320257
Si            5.7275672536        7.6367563137       14.0456286330
Si            9.5459434820        7.6367554057       14.0456295031
Si           13.3643703768        7.6367525478       14.0455999103
Si            1.9091839295       11.4551216454       14.0456310533
Si            5.7275661138       11.4551212171       14.0456295994
Si            9.5459444504       11.4551202362       14.0456315988
Si           13.3643699814       11.4551223054       14.0456001128



     Writing output data file ./silicon.save/
     NEW-OLD atomic charge density approx. for the potential

     negative rho (up, down):  1.286E-07 0.000E+00

     total cpu time spent up to now is     1113.9 secs

     Self-consistent Calculation

     iteration #  1     ecut=    35.00 Ry     beta= 0.70
     Davidson diagonalization with overlap
     ethr =  1.00E-06,  avg # of iterations =  4.0

     Threshold (ethr) on eigenvalues was too large:
     Diagonalizing with lowered threshold

     Davidson diagonalization with overlap
     ethr =  9.86E-08,  avg # of iterations =  5.0

     total cpu time spent up to now is     1229.1 secs

     total energy              =    -502.70520511 Ry
     estimated scf accuracy    <       0.00038622 Ry

     iteration #  2     ecut=    35.00 Ry     beta= 0.70
     Davidson diagonalization with overlap
     ethr =  1.51E-07,  avg # of iterations =  7.0

     total cpu time spent up to now is     1294.6 secs

     total energy              =    -502.70480197 Ry
     estimated scf accuracy    <       0.00417494 Ry

     iteration #  3     ecut=    35.00 Ry     beta= 0.70
     Davidson diagonalization with overlap
     ethr =  1.51E-07,  avg # of iterations =  8.0

     total cpu time spent up to now is     1359.6 secs

     total energy              =    -502.70511004 Ry
     estimated scf accuracy    <       0.00327522 Ry

     iteration #  4     ecut=    35.00 Ry     beta= 0.70
     Davidson diagonalization with overlap
     ethr =  1.51E-07,  avg # of iterations =  8.0

     total cpu time spent up to now is     1416.4 secs

     total energy              =    -502.70526452 Ry
     estimated scf accuracy    <       0.00098163 Ry

     iteration #  5     ecut=    35.00 Ry     beta= 0.70
     Davidson diagonalization with overlap
     ethr =  1.51E-07,  avg # of iterations =  7.0

     total cpu time spent up to now is     1464.3 secs

     total energy              =    -502.70534545 Ry
     estimated scf accuracy    <       0.00009986 Ry

     iteration #  6     ecut=    35.00 Ry     beta= 0.70
     Davidson diagonalization with overlap
     ethr =  3.90E-08,  avg # of iterations = 10.0

     total cpu time spent up to now is     1520.3 secs

     total energy              =    -502.70535172 Ry
     estimated scf accuracy    <       0.00018949 Ry

     iteration #  7     ecut=    35.00 Ry     beta= 0.70
     Davidson diagonalization with overlap
     ethr =  3.90E-08,  avg # of iterations =  7.0

     total cpu time spent up to now is     1561.3 secs

     total energy              =    -502.70536065 Ry
     estimated scf accuracy    <       0.00002720 Ry

     iteration #  8     ecut=    35.00 Ry     beta= 0.70
     Davidson diagonalization with overlap
     ethr =  1.06E-08,  avg # of iterations =  7.0

     total cpu time spent up to now is     1615.4 secs

     total energy              =    -502.70536432 Ry
     estimated scf accuracy    <       0.00004309 Ry

     iteration #  9     ecut=    35.00 Ry     beta= 0.70
     Davidson diagonalization with overlap
     ethr =  1.06E-08,  avg # of iterations =  6.0

     total cpu time spent up to now is     1657.6 secs

     total energy              =    -502.70536616 Ry
     estimated scf accuracy    <       0.00001999 Ry

     iteration # 10     ecut=    35.00 Ry     beta= 0.70
     Davidson diagonalization with overlap
     ethr =  7.81E-09,  avg # of iterations =  2.0

     total cpu time spent up to now is     1693.2 secs

     total energy              =    -502.70536522 Ry
     estimated scf accuracy    <       0.00001455 Ry

     iteration # 11     ecut=    35.00 Ry     beta= 0.70
     Davidson diagonalization with overlap
     ethr =  5.68E-09,  avg # of iterations =  8.0

     total cpu time spent up to now is     1736.9 secs

     total energy              =    -502.70536577 Ry
     estimated scf accuracy    <       0.00000394 Ry

     iteration # 12     ecut=    35.00 Ry     beta= 0.70
     Davidson diagonalization with overlap
     ethr =  1.54E-09,  avg # of iterations =  7.0

     total cpu time spent up to now is     1788.5 secs

     total energy              =    -502.70536609 Ry
     estimated scf accuracy    <       0.00000135 Ry

     iteration # 13     ecut=    35.00 Ry     beta= 0.70
     Davidson diagonalization with overlap
     ethr =  5.27E-10,  avg # of iterations = 12.0

     total cpu time spent up to now is     1846.9 secs

     total energy              =    -502.70536612 Ry
     estimated scf accuracy    <       0.00000395 Ry

     iteration # 14     ecut=    35.00 Ry     beta= 0.70
     Davidson diagonalization with overlap
     ethr =  5.27E-10,  avg # of iterations =  7.0

     total cpu time spent up to now is     1894.7 secs

     total energy              =    -502.70536616 Ry
     estimated scf accuracy    <       0.00000238 Ry

     iteration # 15     ecut=    35.00 Ry     beta= 0.70
     Davidson diagonalization with overlap
     ethr =  5.27E-10,  avg # of iterations =  3.0

     total cpu time spent up to now is     1938.3 secs

     End of self-consistent calculation

          k =-0.5000-0.5000-0.3000 (140200 PWs)   bands (ev):

   -13.6873 -13.6870 -13.6870 -13.6867 -12.7476 -12.7475 -12.7473 -12.7472
   -12.7436 -12.7434 -12.7432 -12.7430 -11.7498 -11.7496 -11.7496 -11.7494
   -11.5721 -11.5720 -11.5717 -11.5716 -11.4765 -11.4764 -11.4761 -11.4760
   -10.4409 -10.4409 -10.4406 -10.4406 -10.3402 -10.3400 -10.3399 -10.3397
    -9.9376  -9.9375  -9.9374  -9.9373  -9.2613  -9.2612  -9.2612  -9.2611
    -8.4385  -8.4384  -8.4383  -8.4382  -8.3902  -8.3901  -8.3900  -8.3899
    -8.0532  -8.0532  -8.0531  -8.0530  -7.9239  -7.9237  -7.9236  -7.9235
    -7.8665  -7.8665  -7.8663  -7.8663  -6.3344  -6.3344  -6.3343  -6.3343
    -5.8147  -5.8147  -5.8145  -5.8145  -5.8055  -5.8054  -5.8054  -5.8053
    -5.7591  -5.7589  -5.7589  -5.7587  -5.5223  -5.5221  -5.5221  -5.5218
    -5.1000  -5.0999  -5.0998  -5.0997  -4.9862  -4.9862  -4.9860  -4.9860
    -4.7895  -4.7894  -4.7893  -4.7892  -4.7007  -4.7007  -4.7006  -4.7006
    -4.1862  -4.1861  -4.1860  -4.1859  -3.9708  -3.9707  -3.9706  -3.9705
    -3.6925  -3.6925  -3.6925  -3.6924  -3.6746  -3.6746  -3.6745  -3.6745
    -3.6256  -3.6255  -3.6254  -3.6252  -3.4481  -3.4481  -3.4479  -3.4479
    -3.1709  -3.1707  -3.1707  -3.1706  -3.1239  -3.1238  -3.1238  -3.1237

     highest occupied level (ev):    -3.1237

!    total energy              =    -502.70536563 Ry
     estimated scf accuracy    <       0.00000067 Ry

     The total energy is the sum of the following terms:
     one-electron contribution =   -4715.70942471 Ry
     hartree contribution      =    2384.99651884 Ry
     xc contribution           =    -146.42409212 Ry
     ewald contribution        =    1974.43163236 Ry

     convergence has been achieved in  15 iterations

     Forces acting on atoms (cartesian axes, Ry/au):

     atom    1 type  1   force =    -0.00001470    0.00001508    0.00563163
     atom    2 type  1   force =    -0.00000116    0.00001545    0.00562619
     atom    3 type  1   force =     0.00000392    0.00001381    0.00562056
     atom    4 type  1   force =     0.00007058    0.00001737    0.00566775
     atom    5 type  1   force =    -0.00001426   -0.00000208    0.00563545
     atom    6 type  1   force =    -0.00000325   -0.00000629    0.00563005
     atom    7 type  1   force =     0.00000556   -0.00000154    0.00562062
     atom    8 type  1   force =     0.00007210   -0.00000045    0.00566927
     atom    9 type  1   force =    -0.00001552   -0.00000010    0.00563890
     atom   10 type  1   force =    -0.00000293    0.00000029    0.00563123
     atom   11 type  1   force =     0.00000500    0.00000220    0.00562067
     atom   12 type  1   force =     0.00007342   -0.00000123    0.00566915
     atom   13 type  1   force =    -0.00001326   -0.00001276    0.00564161
     atom   14 type  1   force =    -0.00000264   -0.00000844    0.00563691
     atom   15 type  1   force =     0.00000478   -0.00001460    0.00563073
     atom   16 type  1   force =     0.00007140   -0.00001508    0.00567640
     atom   17 type  1   force =    -0.00007987   -0.00000854   -0.00810507
     atom   18 type  1   force =    -0.00000980   -0.00000946   -0.00807570
     atom   19 type  1   force =     0.00000871   -0.00001258   -0.00807544
     atom   20 type  1   force =     0.00002163   -0.00001020   -0.00807798
     atom   21 type  1   force =    -0.00008562    0.00000028   -0.00810649
     atom   22 type  1   force =    -0.00000668    0.00000110   -0.00808001
     atom   23 type  1   force =     0.00000788   -0.00000244   -0.00807730
     atom   24 type  1   force =     0.00002406   -0.00000276   -0.00807945
     atom   25 type  1   force =    -0.00008932    0.00000083   -0.00810441
     atom   26 type  1   force =    -0.00001352    0.00000069   -0.00807592
     atom   27 type  1   force =     0.00001781    0.00000252   -0.00807434
     atom   28 type  1   force =     0.00002341    0.00000122   -0.00807855
     atom   29 type  1   force =    -0.00008552    0.00006252   -0.00806911
     atom   30 type  1   force =    -0.00000757    0.00006243   -0.00804325
     atom   31 type  1   force =     0.00001624    0.00006632   -0.00804014
     atom   32 type  1   force =     0.00001610    0.00006649   -0.00804494
     atom   33 type  1   force =    -0.00004629   -0.00006032    0.00806755
     atom   34 type  1   force =    -0.00000101   -0.00005813    0.00804396
     atom   35 type  1   force =    -0.00001684   -0.00006059    0.00804107
     atom   36 type  1   force =     0.00000528   -0.00006152    0.00803891
     atom   37 type  1   force =    -0.00004776   -0.00000299    0.00810289
     atom   38 type  1   force =    -0.00000609   -0.00000486    0.00807793
     atom   39 type  1   force =    -0.00001790   -0.00000342    0.00807491
     atom   40 type  1   force =     0.00001380   -0.00000190    0.00807299
     atom   41 type  1   force =    -0.00004130   -0.00000263    0.00810315
     atom   42 type  1   force =    -0.00001656   -0.00000437    0.00808015
     atom   43 type  1   force =    -0.00001790   -0.00000365    0.00807684
     atom   44 type  1   force =     0.00001822   -0.00000243    0.00807586
     atom   45 type  1   force =    -0.00004449    0.00000969    0.00810054
     atom   46 type  1   force =    -0.00000893    0.00001279    0.00807744
     atom   47 type  1   force =    -0.00001786    0.00001293    0.00807600
     atom   48 type  1   force =     0.00001315    0.00001065    0.00807400
     atom   49 type  1   force =    -0.00001233    0.00000644   -0.00563641
     atom   50 type  1   force =     0.00000001    0.00001258   -0.00563074
     atom   51 type  1   force =     0.00000071    0.00001166   -0.00563315
     atom   52 type  1   force =     0.00007123    0.00001190   -0.00568181
     atom   53 type  1   force =    -0.00001336    0.00000655   -0.00562669
     atom   54 type  1   force =    -0.00000126   -0.00000324   -0.00562464
     atom   55 type  1   force =     0.00000177   -0.00000206   -0.00562487
     atom   56 type  1   force =     0.00007137    0.00000034   -0.00567449
     atom   57 type  1   force =    -0.00001271    0.00000612   -0.00562563
     atom   58 type  1   force =    -0.00000259    0.00000333   -0.00562578
     atom   59 type  1   force =     0.00000301    0.00000408   -0.00562119
     atom   60 type  1   force =     0.00007064    0.00000276   -0.00567711
     atom   61 type  1   force =    -0.00001267   -0.00001926   -0.00562434
     atom   62 type  1   force =    -0.00000297   -0.00001125   -0.00562234
     atom   63 type  1   force =     0.00000317   -0.00001371   -0.00562066
     atom   64 type  1   force =     0.00007149   -0.00001557   -0.00567339

     Total force =     0.055717     Total SCF correction =     0.001321

     BFGS Geometry Optimization
     Energy error            =      0.0E+00
     Gradient error          =      8.1E-03

     number of scf cycles    =   1
     number of bfgs steps    =   0

     energy   new            =    -502.7053656340 Ry

     new trust radius        =       0.0081069456 bohr
     new conv_thr            =       0.0000010000 Ry


ATOMIC_POSITIONS (angstrom)
Si            1.9091794471        1.9092066415       10.0073483992
Si            5.7275652150        1.9092037730       10.0073453833
Si            9.5459434255        1.9092055952       10.0073434174
Si           13.3644077775        1.9092055468       10.0073988911
Si            1.9091807306        5.7275590958       10.0073517021
Si            5.7275647037        5.7275616450       10.0073486924
Si            9.5459437936        5.7275631107       10.0073452369
Si           13.3644083149        5.7275637038       10.0074000983
Si            1.9091784323        9.5459423832       10.0073519899
Si            5.7275651755        9.5459424773       10.0073491915
Si            9.5459454543        9.5459424472       10.0073447153
Si           13.3644086940        9.5459399778       10.0073970698
Si            1.9091784102       13.3643040432       10.0073557961
Si            5.7275640582       13.3643052479       10.0073534267
Si            9.5459449963       13.3643001886       10.0073495902
Si           13.3644090450       13.3643034390       10.0074042006
Si           -0.0000951876        1.9091828118       11.3385368037
Si            3.8183698412        1.9091827180       11.3385738424
Si            7.6367596558        1.9091816671       11.3385730313
Si           11.4551430311        1.9091802823       11.3385764097
Si           -0.0000985957        5.7275644735       11.3385360064
Si            3.8183702086        5.7275651332       11.3385726219
Si            7.6367619134        5.7275646587       11.3385740831
Si           11.4551439752        5.7275653396       11.3385759351
Si           -0.0001081638        9.5459433699       11.3385379059
Si            3.8183703296        9.5459422169       11.3385760908
Si            7.6367720042        9.5459421317       11.3385746464
Si           11.4551395385        9.5459436583       11.3385767049
Si           -0.0001022556       13.3644053270       11.3385913591
Si            3.8183734799       13.3644064086       11.3386264441
Si            7.6367664549       13.3644085284       11.3386270681
Si           11.4551384519       13.3644074129       11.3386297373
Si           -0.0000775750       -0.0000892239       12.7114091942
Si            3.8183797941       -0.0000868889       12.7113706134
Si            7.6367412106       -0.0000880807       12.7113721521
Si           11.4551313333       -0.0000900973       12.7113698011
Si           -0.0000708894        3.8183745127       12.7114641708
Si            3.8183690766        3.8183751823       12.7114233685
Si            7.6367404168        3.8183757297       12.7114213134
Si           11.4551363479        3.8183764627       12.7114207996
Si           -0.0000723126        7.6367529653       12.7114663452
Si            3.8183681139        7.6367491857       12.7114257096
Si            7.6367434538        7.6367505887       12.7114253495
Si           11.4551362402        7.6367548573       12.7114247062
Si           -0.0000733444       11.4551381900       12.7114636175
Si            3.8183708690       11.4551390158       12.7114229697
Si            7.6367439306       11.4551380002       12.7114255582
Si           11.4551343675       11.4551355502       12.7114242193
Si            1.9091778131        0.0000125950       14.0426468746
Si            5.7275657180        0.0000121771       14.0426494102
Si            9.5459451698        0.0000127506       14.0426495010
Si           13.3644089950        0.0000129585       14.0425938116
Si            1.9091792690        3.8183806314       14.0426530530
Si            5.7275658490        3.8183750130       14.0426544355
Si            9.5459430801        3.8183763374       14.0426557999
Si           13.3644095399        3.8183781893       14.0425991293
Si            1.9091781171        7.6367558829       14.0426550702
Si            5.7275658806        7.6367580782       14.0426515994
Si            9.5459450749        7.6367575657       14.0426548972
Si           13.3644077587        7.6367540108       14.0425957138
Si            1.9091772235       11.4551114532       14.0426547795
Si            5.7275645428       11.4551152644       14.0426543875
Si            9.5459461271       11.4551129817       14.0426572755
Si           13.3644078133       11.4551140675       14.0425978828



     Writing output data file ./silicon.save/
     NEW-OLD atomic charge density approx. for the potential

     negative rho (up, down):  2.011E-08 0.000E+00

     total cpu time spent up to now is     1972.2 secs

     Self-consistent Calculation

     iteration #  1     ecut=    35.00 Ry     beta= 0.70
     Davidson diagonalization with overlap
     ethr =  1.00E-06,  avg # of iterations =  3.0

     Threshold (ethr) on eigenvalues was too large:
     Diagonalizing with lowered threshold

     Davidson diagonalization with overlap
     ethr =  3.98E-08,  avg # of iterations =  6.0

     total cpu time spent up to now is     2117.7 secs

     total energy              =    -502.70774315 Ry
     estimated scf accuracy    <       0.00025202 Ry

     iteration #  2     ecut=    35.00 Ry     beta= 0.70
     Davidson diagonalization with overlap
     ethr =  9.84E-08,  avg # of iterations = 11.0

     total cpu time spent up to now is     2214.1 secs

     total energy              =    -502.70696806 Ry
     estimated scf accuracy    <       0.01401288 Ry

     iteration #  3     ecut=    35.00 Ry     beta= 0.70
     Davidson diagonalization with overlap
     ethr =  9.84E-08,  avg # of iterations = 10.0

     total cpu time spent up to now is     2303.4 secs

     total energy              =    -502.70777584 Ry
     estimated scf accuracy    <       0.00093338 Ry

     iteration #  4     ecut=    35.00 Ry     beta= 0.70
     Davidson diagonalization with overlap
     ethr =  9.84E-08,  avg # of iterations =  4.0

     total cpu time spent up to now is     2364.2 secs

     total energy              =    -502.70785624 Ry
     estimated scf accuracy    <       0.00032162 Ry

     iteration #  5     ecut=    35.00 Ry     beta= 0.70
     Davidson diagonalization with overlap
     ethr =  9.84E-08,  avg # of iterations =  6.0

     total cpu time spent up to now is     2414.1 secs

     total energy              =    -502.70787943 Ry
     estimated scf accuracy    <       0.00004556 Ry

     iteration #  6     ecut=    35.00 Ry     beta= 0.70
     Davidson diagonalization with overlap
     ethr =  1.78E-08,  avg # of iterations =  6.0

     total cpu time spent up to now is     2474.5 secs

     total energy              =    -502.70788554 Ry
     estimated scf accuracy    <       0.00003512 Ry

     iteration #  7     ecut=    35.00 Ry     beta= 0.70
     Davidson diagonalization with overlap
     ethr =  1.37E-08,  avg # of iterations =  3.0

     total cpu time spent up to now is     2520.0 secs

     total energy              =    -502.70788880 Ry
     estimated scf accuracy    <       0.00000263 Ry

     iteration #  8     ecut=    35.00 Ry     beta= 0.70
     Davidson diagonalization with overlap
     ethr =  1.03E-09,  avg # of iterations =  9.0

     total cpu time spent up to now is     2595.3 secs

     total energy              =    -502.70789038 Ry
     estimated scf accuracy    <       0.00001615 Ry

     iteration #  9     ecut=    35.00 Ry     beta= 0.70
     Davidson diagonalization with overlap
     ethr =  1.03E-09,  avg # of iterations =  6.0

     total cpu time spent up to now is     2648.0 secs

     total energy              =    -502.70789032 Ry
     estimated scf accuracy    <       0.00000902 Ry

     iteration # 10     ecut=    35.00 Ry     beta= 0.70
     Davidson diagonalization with overlap
     ethr =  1.03E-09,  avg # of iterations =  3.0

     total cpu time spent up to now is     2689.8 secs

     total energy              =    -502.70788950 Ry
     estimated scf accuracy    <       0.00000595 Ry

     iteration # 11     ecut=    35.00 Ry     beta= 0.70
     Davidson diagonalization with overlap
     ethr =  1.03E-09,  avg # of iterations =  8.0

     total cpu time spent up to now is     2749.5 secs

     End of self-consistent calculation

          k =-0.5000-0.5000-0.3000 (140200 PWs)   bands (ev):

   -13.6900 -13.6897 -13.6895 -13.6891 -12.7499 -12.7497 -12.7493 -12.7492
   -12.7458 -12.7456 -12.7455 -12.7452 -11.7518 -11.7516 -11.7515 -11.7513
   -11.5886 -11.5886 -11.5880 -11.5880 -11.4960 -11.4959 -11.4955 -11.4952
   -10.4558 -10.4558 -10.4557 -10.4556 -10.3585 -10.3583 -10.3582 -10.3581
    -9.9465  -9.9463  -9.9462  -9.9459  -9.2698  -9.2697  -9.2696  -9.2695
    -8.4443  -8.4443  -8.4442  -8.4442  -8.3830  -8.3828  -8.3828  -8.3824
    -8.0456  -8.0455  -8.0452  -8.0452  -7.9449  -7.9447  -7.9447  -7.9445
    -7.8544  -7.8544  -7.8540  -7.8540  -6.3372  -6.3371  -6.3368  -6.3368
    -5.8241  -5.8241  -5.8238  -5.8238  -5.7949  -5.7947  -5.7944  -5.7943
    -5.7651  -5.7650  -5.7649  -5.7647  -5.5389  -5.5388  -5.5386  -5.5385
    -5.1197  -5.1196  -5.1196  -5.1195  -4.9683  -4.9681  -4.9680  -4.9678
    -4.8018  -4.8017  -4.8016  -4.8015  -4.7211  -4.7211  -4.7210  -4.7210
    -4.1931  -4.1929  -4.1927  -4.1925  -3.9683  -3.9682  -3.9680  -3.9679
    -3.6867  -3.6866  -3.6865  -3.6864  -3.6729  -3.6729  -3.6727  -3.6726
    -3.6326  -3.6324  -3.6322  -3.6320  -3.4539  -3.4539  -3.4535  -3.4535
    -3.1770  -3.1769  -3.1769  -3.1768  -3.1235  -3.1234  -3.1232  -3.1230

     highest occupied level (ev):    -3.1230

!    total energy              =    -502.70788947 Ry
     estimated scf accuracy    <       0.00000089 Ry

     The total energy is the sum of the following terms:
     one-electron contribution =   -4717.15102867 Ry
     hartree contribution      =    2385.68825583 Ry
     xc contribution           =    -146.45557914 Ry
     ewald contribution        =    1975.21046251 Ry

     convergence has been achieved in  11 iterations

     Forces acting on atoms (cartesian axes, Ry/au):

     atom    1 type  1   force =    -0.00001418    0.00002049    0.00393343
     atom    2 type  1   force =    -0.00000170    0.00001563    0.00392923
     atom    3 type  1   force =     0.00000199    0.00001410    0.00392482
     atom    4 type  1   force =     0.00004817    0.00001735    0.00395550
     atom    5 type  1   force =    -0.00001388   -0.00000434    0.00393838
     atom    6 type  1   force =    -0.00000079   -0.00000432    0.00392919
     atom    7 type  1   force =     0.00000273   -0.00000366    0.00392505
     atom    8 type  1   force =     0.00004749   -0.00000408    0.00395775
     atom    9 type  1   force =    -0.00001586   -0.00000431    0.00393574
     atom   10 type  1   force =     0.00000186   -0.00000124    0.00393234
     atom   11 type  1   force =     0.00000157    0.00000179    0.00392590
     atom   12 type  1   force =     0.00004565   -0.00000055    0.00395670
     atom   13 type  1   force =    -0.00001493   -0.00001096    0.00394418
     atom   14 type  1   force =     0.00000145   -0.00001032    0.00394160
     atom   15 type  1   force =    -0.00000007   -0.00001204    0.00393903
     atom   16 type  1   force =     0.00004664   -0.00001231    0.00396787
     atom   17 type  1   force =    -0.00003722   -0.00001008   -0.00477353
     atom   18 type  1   force =    -0.00001231   -0.00000888   -0.00476768
     atom   19 type  1   force =     0.00001793   -0.00000998   -0.00476873
     atom   20 type  1   force =    -0.00000107   -0.00000920   -0.00476614
     atom   21 type  1   force =    -0.00003013    0.00000034   -0.00478151
     atom   22 type  1   force =    -0.00002383   -0.00000043   -0.00477535
     atom   23 type  1   force =     0.00001364    0.00000020   -0.00477423
     atom   24 type  1   force =     0.00000620    0.00000158   -0.00477206
     atom   25 type  1   force =    -0.00003449    0.00000058   -0.00477538
     atom   26 type  1   force =    -0.00001451   -0.00000125   -0.00476754
     atom   27 type  1   force =     0.00001536    0.00000212   -0.00476976
     atom   28 type  1   force =     0.00000241    0.00000174   -0.00476787
     atom   29 type  1   force =    -0.00004034    0.00003964   -0.00475253
     atom   30 type  1   force =    -0.00000727    0.00004094   -0.00474497
     atom   31 type  1   force =     0.00001617    0.00003858   -0.00474985
     atom   32 type  1   force =    -0.00000118    0.00003658   -0.00474668
     atom   33 type  1   force =    -0.00004857   -0.00003871    0.00475685
     atom   34 type  1   force =     0.00000484   -0.00003745    0.00474514
     atom   35 type  1   force =    -0.00000729   -0.00003777    0.00475110
     atom   36 type  1   force =     0.00001302   -0.00003699    0.00475527
     atom   37 type  1   force =    -0.00004494   -0.00000268    0.00478333
     atom   38 type  1   force =     0.00000271   -0.00000137    0.00476714
     atom   39 type  1   force =    -0.00001428   -0.00000325    0.00477433
     atom   40 type  1   force =     0.00002100   -0.00000244    0.00477713
     atom   41 type  1   force =    -0.00004708   -0.00000058    0.00478281
     atom   42 type  1   force =     0.00000222   -0.00000164    0.00476740
     atom   43 type  1   force =    -0.00001146   -0.00000010    0.00477332
     atom   44 type  1   force =     0.00001946   -0.00000203    0.00477620
     atom   45 type  1   force =    -0.00005436    0.00001096    0.00477243
     atom   46 type  1   force =     0.00000927    0.00000932    0.00476113
     atom   47 type  1   force =    -0.00000285    0.00001045    0.00476737
     atom   48 type  1   force =     0.00001045    0.00001175    0.00477040
     atom   49 type  1   force =    -0.00001548    0.00001524   -0.00394380
     atom   50 type  1   force =     0.00000303    0.00001363   -0.00393898
     atom   51 type  1   force =     0.00000240    0.00001071   -0.00394260
     atom   52 type  1   force =     0.00004601    0.00001146   -0.00397483
     atom   53 type  1   force =    -0.00001653    0.00000102   -0.00393338
     atom   54 type  1   force =     0.00000099    0.00000034   -0.00392918
     atom   55 type  1   force =     0.00000243   -0.00000191   -0.00392943
     atom   56 type  1   force =     0.00004694    0.00000144   -0.00396500
     atom   57 type  1   force =    -0.00001565    0.00000096   -0.00393460
     atom   58 type  1   force =     0.00000195    0.00000128   -0.00392841
     atom   59 type  1   force =     0.00000259    0.00000695   -0.00392972
     atom   60 type  1   force =     0.00004719    0.00000247   -0.00396471
     atom   61 type  1   force =    -0.00001598   -0.00001806   -0.00392868
     atom   62 type  1   force =     0.00000297   -0.00001557   -0.00392656
     atom   63 type  1   force =     0.00000225   -0.00001543   -0.00393181
     atom   64 type  1   force =     0.00004727   -0.00001570   -0.00396254

     Total force =     0.034987     Total SCF correction =     0.001440
     Energy error            =      2.5E-03
     Gradient error          =      4.8E-03

     number of scf cycles    =   2
     number of bfgs steps    =   1

     energy   old            =    -502.7053656340 Ry
     energy   new            =    -502.7078894726 Ry

     CASE: energy  _new < energy  _old

     new trust radius        =       0.0089176402 bohr
     new conv_thr            =       0.0000000478 Ry


ATOMIC_POSITIONS (angstrom)
Si            1.9091655229        1.9092267195       10.0112218057
Si            5.7275635473        1.9092191225       10.0112146553
Si            9.5459453894        1.9092194397       10.0112083479
Si           13.3644552266        1.9092225843       10.0112940555
Si            1.9091670986        5.7275548525       10.0112299565
Si            5.7275639087        5.7275573860       10.0112179512
Si            9.5459464921        5.7275595348       10.0112103926
Si           13.3644551075        5.7275597178       10.0112974699
Si            1.9091628598        9.5459381803       10.0112276910
Si            5.7275669663        9.5459412709       10.0112215248
Si            9.5459470141        9.5459442111       10.0112107054
Si           13.3644537001        9.5459394317       10.0112934203
Si            1.9091637652       13.3642932665       10.0112397449
Si            5.7275654536       13.3642951245       10.0112348308
Si            9.5459449581       13.3642883488       10.0112284439
Si           13.3644550044       13.3642913298       10.0113114896
Si           -0.0001320168        1.9091729226       11.3338275331
Si            3.8183577706        1.9091739984       11.3338704741
Si            7.6367772013        1.9091718526       11.3338686471
Si           11.4551421383        1.9091712442       11.3338745287
Si           -0.0001285492        5.7275648076       11.3338189504
Si            3.8183469308        5.7275647206       11.3338617531
Si            7.6367752690        5.7275648418       11.3338643182
Si           11.4551501871        5.7275668621       11.3338682687
Si           -0.0001423993        9.5459439416       11.3338268386
Si            3.8183560914        9.5459410034       11.3338728560
Si            7.6367871006        9.5459442153       11.3338692582
Si           11.4551420468        9.5459453617       11.3338731343
Si           -0.0001421657       13.3644444056       11.3339028091
Si            3.8183663375       13.3644467460       11.3339454392
Si            7.6367823267       13.3644465973       11.3339413306
Si           11.4551374127       13.3644435271       11.3339470574
Si           -0.0001252453       -0.0001273761       12.7161019409
Si            3.8183845022       -0.0001237988       12.7160517905
Si            7.6367339839       -0.0001253158       12.7160591198
Si           11.4551440668       -0.0001265808       12.7160608136
Si           -0.0001150273        3.8183718757       12.7161829756
Si            3.8183716730        3.8183738125       12.7161262257
Si            7.6367263718        3.8183725355       12.7161311540
Si           11.4551569135        3.8183740736       12.7161333626
Si           -0.0001184959        7.6367523801       12.7161846454
Si            3.8183701679        7.6367475567       12.7161288276
Si            7.6367321601        7.6367504650       12.7161342267
Si           11.4551553356        7.6367528570       12.7161363777
Si           -0.0001266480       11.4551489391       12.7161717789
Si            3.8183798516       11.4551481857       12.7161199575
Si            7.6367410275       11.4551482773       12.7161286241
Si           11.4551446427       11.4551470796       12.7161302295
Si            1.9091626328        0.0000274997       14.0387633267
Si            5.7275686772        0.0000255511       14.0387705988
Si            9.5459475100        0.0000232740       14.0387671495
Si           13.3644543433        0.0000242108       14.0386797021
Si            1.9091630609        3.8183816664       14.0387797328
Si            5.7275668017        3.8183753274       14.0387852219
Si            9.5459454624        3.8183744567       14.0387863441
Si           13.3644557921        3.8183795935       14.0386946549
Si            1.9091627729        7.6367568639       14.0387805709
Si            5.7275677665        7.6367593524       14.0387831351
Si            9.5459476231        7.6367643726       14.0387851812
Si           13.3644542457        7.6367564346       14.0386914997
Si            1.9091615522       11.4550937088       14.0387860605
Si            5.7275674145       11.4551000069       14.0387877497
Si            9.5459483440       11.4550978481       14.0387855261
Si           13.3644543840       11.4550986580       14.0386958140



     Writing output data file ./silicon.save/
     NEW-OLD atomic charge density approx. for the potential

     negative rho (up, down):  4.958E-08 0.000E+00

     total cpu time spent up to now is     2780.9 secs

     Self-consistent Calculation

     iteration #  1     ecut=    35.00 Ry     beta= 0.70
     Davidson diagonalization with overlap
     ethr =  1.00E-06,  avg # of iterations =  3.0

     Threshold (ethr) on eigenvalues was too large:
     Diagonalizing with lowered threshold

     Davidson diagonalization with overlap
     ethr =  5.47E-08,  avg # of iterations =  5.0

     total cpu time spent up to now is     2913.6 secs

     total energy              =    -502.70924412 Ry
     estimated scf accuracy    <       0.00027780 Ry

     iteration #  2     ecut=    35.00 Ry     beta= 0.70
     Davidson diagonalization with overlap
     ethr =  1.09E-07,  avg # of iterations = 11.0

     total cpu time spent up to now is     3000.9 secs

     total energy              =    -502.70858472 Ry
     estimated scf accuracy    <       0.01067632 Ry

     iteration #  3     ecut=    35.00 Ry     beta= 0.70
     Davidson diagonalization with overlap
     ethr =  1.09E-07,  avg # of iterations = 11.0

     total cpu time spent up to now is     3087.3 secs

     total energy              =    -502.70926820 Ry
     estimated scf accuracy    <       0.00109199 Ry

     iteration #  4     ecut=    35.00 Ry     beta= 0.70
     Davidson diagonalization with overlap
     ethr =  1.09E-07,  avg # of iterations =  7.0

     total cpu time spent up to now is     3148.5 secs

     total energy              =    -502.70933609 Ry
     estimated scf accuracy    <       0.00071732 Ry

     iteration #  5     ecut=    35.00 Ry     beta= 0.70
     Davidson diagonalization with overlap
     ethr =  1.09E-07,  avg # of iterations =  6.0

     total cpu time spent up to now is     3202.1 secs

     total energy              =    -502.70938365 Ry
     estimated scf accuracy    <       0.00004176 Ry

     iteration #  6     ecut=    35.00 Ry     beta= 0.70
     Davidson diagonalization with overlap
     ethr =  1.63E-08,  avg # of iterations =  8.0

     total cpu time spent up to now is     3268.1 secs

     total energy              =    -502.70938368 Ry
     estimated scf accuracy    <       0.00012962 Ry

     iteration #  7     ecut=    35.00 Ry     beta= 0.70
     Davidson diagonalization with overlap
     ethr =  1.63E-08,  avg # of iterations =  7.0

     total cpu time spent up to now is     3327.9 secs

     total energy              =    -502.70939326 Ry
     estimated scf accuracy    <       0.00002443 Ry

     iteration #  8     ecut=    35.00 Ry     beta= 0.70
     Davidson diagonalization with overlap
     ethr =  9.54E-09,  avg # of iterations =  6.0

     total cpu time spent up to now is     3381.7 secs

     total energy              =    -502.70939514 Ry
     estimated scf accuracy    <       0.00000669 Ry

     iteration #  9     ecut=    35.00 Ry     beta= 0.70
     Davidson diagonalization with overlap
     ethr =  2.61E-09,  avg # of iterations =  8.0

     total cpu time spent up to now is     3439.4 secs

     total energy              =    -502.70939557 Ry
     estimated scf accuracy    <       0.00000471 Ry

     iteration # 10     ecut=    35.00 Ry     beta= 0.70
     Davidson diagonalization with overlap
     ethr =  1.84E-09,  avg # of iterations =  6.0

     total cpu time spent up to now is     3486.9 secs

     total energy              =    -502.70939563 Ry
     estimated scf accuracy    <       0.00000152 Ry

     iteration # 11     ecut=    35.00 Ry     beta= 0.70
     Davidson diagonalization with overlap
     ethr =  5.95E-10,  avg # of iterations =  8.0

     total cpu time spent up to now is     3547.3 secs

     total energy              =    -502.70939582 Ry
     estimated scf accuracy    <       0.00000079 Ry

     iteration # 12     ecut=    35.00 Ry     beta= 0.70
     Davidson diagonalization with overlap
     ethr =  3.07E-10,  avg # of iterations =  3.0

     total cpu time spent up to now is     3594.9 secs

     total energy              =    -502.70939584 Ry
     estimated scf accuracy    <       0.00000037 Ry

     iteration # 13     ecut=    35.00 Ry     beta= 0.70
     Davidson diagonalization with overlap
     ethr =  1.46E-10,  avg # of iterations =  8.0

     total cpu time spent up to now is     3659.0 secs

     total energy              =    -502.70939583 Ry
     estimated scf accuracy    <       0.00000089 Ry

     iteration # 14     ecut=    35.00 Ry     beta= 0.70
     Davidson diagonalization with overlap
     ethr =  1.46E-10,  avg # of iterations =  7.0

     total cpu time spent up to now is     3713.4 secs

     total energy              =    -502.70939586 Ry
     estimated scf accuracy    <       0.00000025 Ry

     iteration # 15     ecut=    35.00 Ry     beta= 0.70
     Davidson diagonalization with overlap
     ethr =  9.90E-11,  avg # of iterations =  3.0

     total cpu time spent up to now is     3754.5 secs

     total energy              =    -502.70939586 Ry
     estimated scf accuracy    <       0.00000009 Ry

     iteration # 16     ecut=    35.00 Ry     beta= 0.70
     Davidson diagonalization with overlap
     ethr =  3.46E-11,  avg # of iterations =  8.0

     total cpu time spent up to now is     3807.6 secs

     total energy              =    -502.70939587 Ry
     estimated scf accuracy    <       0.00000008 Ry

     iteration # 17     ecut=    35.00 Ry     beta= 0.70
