
     Program PWSCF v.6.7MaX starts on  8Apr2024 at 19: 0:19 

     This program is part of the open-source Quantum ESPRESSO suite
     for quantum simulation of materials; please cite
         "P. Giannozzi et al., J. Phys.:Condens. Matter 21 395502 (2009);
         "P. Giannozzi et al., J. Phys.:Condens. Matter 29 465901 (2017);
          URL http://www.quantum-espresso.org", 
     in publications or presentations arising from this work. More details at
     http://www.quantum-espresso.org/quote

     Parallel version (MPI), running on     4 processors

     MPI processes distributed on     1 nodes
     R & G space division:  proc/nbgrp/npool/nimage =       4
     Waiting for input...
     Reading input from standard input

     Current dimensions of program PWSCF are:
     Max number of different atomic species (ntypx) = 10
     Max number of k-points (npk) =  40000
     Max angular momentum in pseudopotentials (lmaxx) =  3

     File ./silicon.update deleted, as requested

     File ./silicon.bfgs deleted, as requested

     Subspace diagonalization in iterative solution of the eigenvalue problem:
     one sub-group per band group will be used
     scalapack distributed-memory algorithm (size of sub-group:  2*  2 procs)


     Parallelization info
     --------------------
     sticks:   dense  smooth     PW     G-vecs:    dense   smooth      PW
     Min        2319    2319    612               280370   280370   38034
     Max        2321    2321    613               280373   280373   38039
     Sum        9281    9281   2449              1121485  1121485  152141



     bravais-lattice index     =            0
     lattice parameter (alat)  =      28.8637  a.u.
     unit-cell volume          =   40076.7353 (a.u.)^3
     number of atoms/cell      =           64
     number of atomic types    =            1
     number of electrons       =       256.00
     number of Kohn-Sham states=          128
     kinetic-energy cutoff     =      35.0000  Ry
     charge density cutoff     =     140.0000  Ry
     scf convergence threshold =      1.0E-06
     mixing beta               =       0.7000
     number of iterations used =            8  plain     mixing
     energy convergence thresh.=      1.0E-04
     force convergence thresh. =      1.0E-03
     Exchange-correlation= SLA  PZ   NOGX NOGC
                           (   1   1   0   0   0   0   0)
     nstep                     =           50


     celldm(1)=  28.863677  celldm(2)=   0.000000  celldm(3)=   0.000000
     celldm(4)=   0.000000  celldm(5)=   0.000000  celldm(6)=   0.000000

     crystal axes: (cart. coord. in units of alat)
               a(1) = (   1.000000   0.000000   0.000000 )  
               a(2) = (   0.000000   1.000000   0.000000 )  
               a(3) = (   0.000000   0.000000   1.666623 )  

     reciprocal axes: (cart. coord. in units 2 pi/alat)
               b(1) = (  1.000000  0.000000  0.000000 )  
               b(2) = (  0.000000  1.000000  0.000000 )  
               b(3) = (  0.000000  0.000000  0.600016 )  


     PseudoPot. # 1 for Si read from file:
     ./Si.pz-vbc.UPF
     MD5 check sum: 9f25e6ff280f3123e9b3a84715b2e9c9
     Pseudo is Norm-conserving, Zval =  4.0
     Generated by new atomic code, or converted to UPF format
     Using radial grid of  431 points,  2 beta functions with: 
                l(1) =   0
                l(2) =   1

     atomic species   valence    mass     pseudopotential
        Si             4.00    28.08600     Si( 1.00)

     No symmetry found



   Cartesian axes

     site n.     atom                  positions (alat units)
         1           Si  tau(   1) = (   0.1249960   0.1249960   0.6547073  )
         2           Si  tau(   2) = (   0.3749879   0.1249960   0.6547073  )
         3           Si  tau(   3) = (   0.6249798   0.1249960   0.6547073  )
         4           Si  tau(   4) = (   0.8749717   0.1249960   0.6547073  )
         5           Si  tau(   5) = (   0.1249960   0.3749879   0.6547073  )
         6           Si  tau(   6) = (   0.3749879   0.3749879   0.6547073  )
         7           Si  tau(   7) = (   0.6249798   0.3749879   0.6547073  )
         8           Si  tau(   8) = (   0.8749717   0.3749879   0.6547073  )
         9           Si  tau(   9) = (   0.1249960   0.6249798   0.6547073  )
        10           Si  tau(  10) = (   0.3749879   0.6249798   0.6547073  )
        11           Si  tau(  11) = (   0.6249798   0.6249798   0.6547073  )
        12           Si  tau(  12) = (   0.8749717   0.6249798   0.6547073  )
        13           Si  tau(  13) = (   0.1249960   0.8749717   0.6547073  )
        14           Si  tau(  14) = (   0.3749879   0.8749717   0.6547073  )
        15           Si  tau(  15) = (   0.6249798   0.8749717   0.6547073  )
        16           Si  tau(  16) = (   0.8749717   0.8749717   0.6547073  )
        17           Si  tau(  17) = (   0.0000000   0.1249960   0.7430928  )
        18           Si  tau(  18) = (   0.2499919   0.1249960   0.7430928  )
        19           Si  tau(  19) = (   0.4999838   0.1249960   0.7430928  )
        20           Si  tau(  20) = (   0.7499758   0.1249960   0.7430928  )
        21           Si  tau(  21) = (   0.0000000   0.3749879   0.7430928  )
        22           Si  tau(  22) = (   0.2499919   0.3749879   0.7430928  )
        23           Si  tau(  23) = (   0.4999838   0.3749879   0.7430928  )
        24           Si  tau(  24) = (   0.7499758   0.3749879   0.7430928  )
        25           Si  tau(  25) = (   0.0000000   0.6249798   0.7430928  )
        26           Si  tau(  26) = (   0.2499919   0.6249798   0.7430928  )
        27           Si  tau(  27) = (   0.4999838   0.6249798   0.7430928  )
        28           Si  tau(  28) = (   0.7499758   0.6249798   0.7430928  )
        29           Si  tau(  29) = (   0.0000000   0.8749717   0.7430928  )
        30           Si  tau(  30) = (   0.2499919   0.8749717   0.7430928  )
        31           Si  tau(  31) = (   0.4999838   0.8749717   0.7430928  )
        32           Si  tau(  32) = (   0.7499758   0.8749717   0.7430928  )
        33           Si  tau(  33) = (   0.0000000   0.0000000   0.8314783  )
        34           Si  tau(  34) = (   0.2499919   0.0000000   0.8314783  )
        35           Si  tau(  35) = (   0.4999838   0.0000000   0.8314783  )
        36           Si  tau(  36) = (   0.7499758   0.0000000   0.8314783  )
        37           Si  tau(  37) = (   0.0000000   0.2499919   0.8314783  )
        38           Si  tau(  38) = (   0.2499919   0.2499919   0.8314783  )
        39           Si  tau(  39) = (   0.4999838   0.2499919   0.8314783  )
        40           Si  tau(  40) = (   0.7499758   0.2499919   0.8314783  )
        41           Si  tau(  41) = (   0.0000000   0.4999838   0.8314783  )
        42           Si  tau(  42) = (   0.2499919   0.4999838   0.8314783  )
        43           Si  tau(  43) = (   0.4999838   0.4999838   0.8314783  )
        44           Si  tau(  44) = (   0.7499758   0.4999838   0.8314783  )
        45           Si  tau(  45) = (   0.0000000   0.7499758   0.8314783  )
        46           Si  tau(  46) = (   0.2499919   0.7499758   0.8314783  )
        47           Si  tau(  47) = (   0.4999838   0.7499758   0.8314783  )
        48           Si  tau(  48) = (   0.7499758   0.7499758   0.8314783  )
        49           Si  tau(  49) = (   0.1249960   0.0000000   0.9198638  )
        50           Si  tau(  50) = (   0.3749879   0.0000000   0.9198638  )
        51           Si  tau(  51) = (   0.6249798   0.0000000   0.9198638  )
        52           Si  tau(  52) = (   0.8749717   0.0000000   0.9198638  )
        53           Si  tau(  53) = (   0.1249960   0.2499919   0.9198638  )
        54           Si  tau(  54) = (   0.3749879   0.2499919   0.9198638  )
        55           Si  tau(  55) = (   0.6249798   0.2499919   0.9198638  )
        56           Si  tau(  56) = (   0.8749717   0.2499919   0.9198638  )
        57           Si  tau(  57) = (   0.1249960   0.4999838   0.9198638  )
        58           Si  tau(  58) = (   0.3749879   0.4999838   0.9198638  )
        59           Si  tau(  59) = (   0.6249798   0.4999838   0.9198638  )
        60           Si  tau(  60) = (   0.8749717   0.4999838   0.9198638  )
        61           Si  tau(  61) = (   0.1249960   0.7499758   0.9198638  )
        62           Si  tau(  62) = (   0.3749879   0.7499758   0.9198638  )
        63           Si  tau(  63) = (   0.6249798   0.7499758   0.9198638  )
        64           Si  tau(  64) = (   0.8749717   0.7499758   0.9198638  )

     number of k points=     1
                       cart. coord. in units 2pi/alat
        k(    1) = (  -0.5000000  -0.5000000  -0.3000079), wk =   2.0000000

     Dense  grid:  1121485 G-vectors     FFT dimensions: ( 120, 120, 192)

     Estimated max dynamical RAM per process >     644.59 MB

     Estimated total dynamical RAM >       2.52 GB

     Initial potential from superposition of free atoms

     starting charge  255.96826, renormalised to  256.00000

     negative rho (up, down):  7.675E-05 0.000E+00
     Starting wfcs are  256 randomized atomic wfcs

     total cpu time spent up to now is       12.0 secs

     Self-consistent Calculation

     iteration #  1     ecut=    35.00 Ry     beta= 0.70
     Davidson diagonalization with overlap
     ethr =  1.00E-02,  avg # of iterations =  2.0

     Threshold (ethr) on eigenvalues was too large:
     Diagonalizing with lowered threshold

     Davidson diagonalization with overlap
     ethr =  7.40E-04,  avg # of iterations =  2.0

     total cpu time spent up to now is       40.5 secs

     total energy              =    -501.96285002 Ry
     estimated scf accuracy    <       2.32468470 Ry

     iteration #  2     ecut=    35.00 Ry     beta= 0.70
     Davidson diagonalization with overlap
     ethr =  9.08E-04,  avg # of iterations =  3.0

     total cpu time spent up to now is       56.8 secs

     total energy              =    -501.97700558 Ry
     estimated scf accuracy    <       3.09566609 Ry

     iteration #  3     ecut=    35.00 Ry     beta= 0.70
     Davidson diagonalization with overlap
     ethr =  9.08E-04,  avg # of iterations =  3.0

     total cpu time spent up to now is       71.0 secs

     total energy              =    -502.69046159 Ry
     estimated scf accuracy    <       0.07617360 Ry

     iteration #  4     ecut=    35.00 Ry     beta= 0.70
     Davidson diagonalization with overlap
     ethr =  2.98E-05,  avg # of iterations =  5.0

     total cpu time spent up to now is       85.8 secs

     total energy              =    -502.69045056 Ry
     estimated scf accuracy    <       0.04273681 Ry

     iteration #  5     ecut=    35.00 Ry     beta= 0.70
     Davidson diagonalization with overlap
     ethr =  1.67E-05,  avg # of iterations =  5.0

     total cpu time spent up to now is       99.7 secs

     total energy              =    -502.69402776 Ry
     estimated scf accuracy    <       0.03481858 Ry

     iteration #  6     ecut=    35.00 Ry     beta= 0.70
     Davidson diagonalization with overlap
     ethr =  1.36E-05,  avg # of iterations =  7.0

     total cpu time spent up to now is      112.5 secs

     total energy              =    -502.69815575 Ry
     estimated scf accuracy    <       0.00567141 Ry

     iteration #  7     ecut=    35.00 Ry     beta= 0.70
     Davidson diagonalization with overlap
     ethr =  2.22E-06,  avg # of iterations =  6.0

     total cpu time spent up to now is      128.5 secs

     total energy              =    -502.69765054 Ry
     estimated scf accuracy    <       0.01892182 Ry

     iteration #  8     ecut=    35.00 Ry     beta= 0.70
     Davidson diagonalization with overlap
     ethr =  2.22E-06,  avg # of iterations =  6.0

     total cpu time spent up to now is      141.6 secs

     total energy              =    -502.69871292 Ry
     estimated scf accuracy    <       0.00227027 Ry

     iteration #  9     ecut=    35.00 Ry     beta= 0.70
     Davidson diagonalization with overlap
     ethr =  8.87E-07,  avg # of iterations =  5.0

     total cpu time spent up to now is      152.5 secs

     total energy              =    -502.69877585 Ry
     estimated scf accuracy    <       0.00106022 Ry

     iteration # 10     ecut=    35.00 Ry     beta= 0.70
     Davidson diagonalization with overlap
     ethr =  4.14E-07,  avg # of iterations =  5.0

     total cpu time spent up to now is      163.7 secs

     total energy              =    -502.69880615 Ry
     estimated scf accuracy    <       0.00052521 Ry

     iteration # 11     ecut=    35.00 Ry     beta= 0.70
     Davidson diagonalization with overlap
     ethr =  2.05E-07,  avg # of iterations =  6.0

     total cpu time spent up to now is      176.0 secs

     total energy              =    -502.69884111 Ry
     estimated scf accuracy    <       0.00015687 Ry

     iteration # 12     ecut=    35.00 Ry     beta= 0.70
     Davidson diagonalization with overlap
     ethr =  6.13E-08,  avg # of iterations =  7.0

     total cpu time spent up to now is      190.2 secs

     total energy              =    -502.69886027 Ry
     estimated scf accuracy    <       0.00017977 Ry

     iteration # 13     ecut=    35.00 Ry     beta= 0.70
     Davidson diagonalization with overlap
     ethr =  6.13E-08,  avg # of iterations =  3.0

     total cpu time spent up to now is      201.0 secs

     total energy              =    -502.69885035 Ry
     estimated scf accuracy    <       0.00014624 Ry

     iteration # 14     ecut=    35.00 Ry     beta= 0.70
     Davidson diagonalization with overlap
     ethr =  5.71E-08,  avg # of iterations =  5.0

     total cpu time spent up to now is      212.2 secs

     total energy              =    -502.69885162 Ry
     estimated scf accuracy    <       0.00004625 Ry

     iteration # 15     ecut=    35.00 Ry     beta= 0.70
     Davidson diagonalization with overlap
     ethr =  1.81E-08,  avg # of iterations =  7.0

     total cpu time spent up to now is      226.7 secs

     total energy              =    -502.69885569 Ry
     estimated scf accuracy    <       0.00006653 Ry

     iteration # 16     ecut=    35.00 Ry     beta= 0.70
     Davidson diagonalization with overlap
     ethr =  1.81E-08,  avg # of iterations =  3.0

     total cpu time spent up to now is      238.2 secs

     total energy              =    -502.69885687 Ry
     estimated scf accuracy    <       0.00001397 Ry

     iteration # 17     ecut=    35.00 Ry     beta= 0.70
     Davidson diagonalization with overlap
     ethr =  5.46E-09,  avg # of iterations =  8.0

     total cpu time spent up to now is      256.8 secs

     total energy              =    -502.69885637 Ry
     estimated scf accuracy    <       0.00007195 Ry

     iteration # 18     ecut=    35.00 Ry     beta= 0.70
     Davidson diagonalization with overlap
     ethr =  5.46E-09,  avg # of iterations =  7.0

     total cpu time spent up to now is      274.8 secs

     total energy              =    -502.69885965 Ry
     estimated scf accuracy    <       0.00001181 Ry

     iteration # 19     ecut=    35.00 Ry     beta= 0.70
     Davidson diagonalization with overlap
     ethr =  4.61E-09,  avg # of iterations =  6.0

     total cpu time spent up to now is      290.0 secs

     total energy              =    -502.69885979 Ry
     estimated scf accuracy    <       0.00000864 Ry

     iteration # 20     ecut=    35.00 Ry     beta= 0.70
     Davidson diagonalization with overlap
     ethr =  3.38E-09,  avg # of iterations =  7.0

     total cpu time spent up to now is      305.7 secs

     total energy              =    -502.69885999 Ry
     estimated scf accuracy    <       0.00000629 Ry

     iteration # 21     ecut=    35.00 Ry     beta= 0.70
     Davidson diagonalization with overlap
     ethr =  2.46E-09,  avg # of iterations =  5.0

     total cpu time spent up to now is      320.3 secs

     total energy              =    -502.69886005 Ry
     estimated scf accuracy    <       0.00000233 Ry

     iteration # 22     ecut=    35.00 Ry     beta= 0.70
     Davidson diagonalization with overlap
     ethr =  9.09E-10,  avg # of iterations =  7.0

     total cpu time spent up to now is      337.2 secs

     total energy              =    -502.69886017 Ry
     estimated scf accuracy    <       0.00000138 Ry

     iteration # 23     ecut=    35.00 Ry     beta= 0.70
     Davidson diagonalization with overlap
     ethr =  5.37E-10,  avg # of iterations =  6.0

     total cpu time spent up to now is      353.8 secs

     End of self-consistent calculation

          k =-0.5000-0.5000-0.3000 (140200 PWs)   bands (ev):

   -13.6851 -13.6847 -13.6846 -13.6843 -12.7527 -12.7525 -12.7523 -12.7520
   -12.7353 -12.7350 -12.7349 -12.7346 -11.7486 -11.7483 -11.7483 -11.7480
   -11.5466 -11.5465 -11.5461 -11.5460 -11.4457 -11.4455 -11.4453 -11.4450
   -10.4180 -10.4178 -10.4175 -10.4174 -10.3112 -10.3110 -10.3107 -10.3105
    -9.9247  -9.9246  -9.9244  -9.9242  -9.2488  -9.2486  -9.2486  -9.2485
    -8.4307  -8.4305  -8.4304  -8.4302  -8.4020  -8.4019  -8.4016  -8.4015
    -8.0661  -8.0659  -8.0659  -8.0658  -7.8905  -7.8903  -7.8901  -7.8899
    -7.8875  -7.8874  -7.8873  -7.8873  -6.3305  -6.3305  -6.3304  -6.3304
    -5.8250  -5.8250  -5.8249  -5.8248  -5.7998  -5.7998  -5.7996  -5.7995
    -5.7496  -5.7493  -5.7493  -5.7490  -5.4971  -5.4969  -5.4968  -5.4965
    -5.0696  -5.0695  -5.0694  -5.0693  -5.0177  -5.0176  -5.0175  -5.0175
    -4.7711  -4.7709  -4.7708  -4.7707  -4.6689  -4.6689  -4.6688  -4.6688
    -4.1755  -4.1753  -4.1752  -4.1751  -3.9744  -3.9743  -3.9741  -3.9740
    -3.7023  -3.7022  -3.7021  -3.7021  -3.6783  -3.6782  -3.6782  -3.6782
    -3.6135  -3.6133  -3.6132  -3.6130  -3.4385  -3.4384  -3.4382  -3.4382
    -3.1611  -3.1609  -3.1609  -3.1607  -3.1244  -3.1243  -3.1242  -3.1241

     highest occupied level (ev):    -3.1241

!    total energy              =    -502.69885972 Ry
     estimated scf accuracy    <       0.00000072 Ry

     The total energy is the sum of the following terms:
     one-electron contribution =   -4713.87716669 Ry
     hartree contribution      =    2384.11937533 Ry
     xc contribution           =    -146.37876688 Ry
     ewald contribution        =    1973.43769851 Ry

     convergence has been achieved in  23 iterations

     Forces acting on atoms (cartesian axes, Ry/au):

     atom    1 type  1   force =    -0.00000512    0.00001905    0.00825223
     atom    2 type  1   force =     0.00000381    0.00000946    0.00825819
     atom    3 type  1   force =     0.00000029    0.00001955    0.00825528
     atom    4 type  1   force =     0.00009955    0.00000641    0.00831000
     atom    5 type  1   force =    -0.00000932   -0.00000176    0.00826410
     atom    6 type  1   force =     0.00000549   -0.00000738    0.00826006
     atom    7 type  1   force =     0.00000421   -0.00000196    0.00825621
     atom    8 type  1   force =     0.00009772   -0.00000068    0.00830974
     atom    9 type  1   force =    -0.00000593   -0.00000902    0.00825836
     atom   10 type  1   force =     0.00000325    0.00000890    0.00825565
     atom   11 type  1   force =     0.00000035   -0.00000749    0.00825606
     atom   12 type  1   force =     0.00010010    0.00001050    0.00831743
     atom   13 type  1   force =    -0.00000306   -0.00000909    0.00824859
     atom   14 type  1   force =     0.00000276   -0.00001053    0.00826021
     atom   15 type  1   force =    -0.00000353   -0.00001015    0.00825624
     atom   16 type  1   force =     0.00010123   -0.00001324    0.00832055
     atom   17 type  1   force =    -0.00009691    0.00000095   -0.01356407
     atom   18 type  1   force =     0.00000968   -0.00000359   -0.01351601
     atom   19 type  1   force =    -0.00000226   -0.00000397   -0.01351180
     atom   20 type  1   force =    -0.00000732   -0.00000402   -0.01350832
     atom   21 type  1   force =    -0.00008804    0.00000316   -0.01356308
     atom   22 type  1   force =    -0.00000318   -0.00000025   -0.01351848
     atom   23 type  1   force =     0.00000730   -0.00000106   -0.01351323
     atom   24 type  1   force =    -0.00001309    0.00000207   -0.01350755
     atom   25 type  1   force =    -0.00010689    0.00000110   -0.01356267
     atom   26 type  1   force =     0.00000512   -0.00000005   -0.01351505
     atom   27 type  1   force =    -0.00000411   -0.00000284   -0.01351149
     atom   28 type  1   force =     0.00000678   -0.00000310   -0.01350998
     atom   29 type  1   force =    -0.00012746    0.00009854   -0.01350092
     atom   30 type  1   force =     0.00002130    0.00010754   -0.01344891
     atom   31 type  1   force =    -0.00001242    0.00011085   -0.01344772
     atom   32 type  1   force =     0.00001857    0.00010638   -0.01344804
     atom   33 type  1   force =    -0.00010771   -0.00010674    0.01349498
     atom   34 type  1   force =     0.00001881   -0.00010352    0.01344636
     atom   35 type  1   force =    -0.00000336   -0.00010403    0.01344795
     atom   36 type  1   force =    -0.00000157   -0.00010632    0.01344391
     atom   37 type  1   force =    -0.00008915    0.00000214    0.01355755
     atom   38 type  1   force =    -0.00001033   -0.00000514    0.01350857
     atom   39 type  1   force =     0.00000450   -0.00000166    0.01350131
     atom   40 type  1   force =    -0.00000329    0.00000193    0.01349829
     atom   41 type  1   force =    -0.00009352   -0.00000102    0.01356561
     atom   42 type  1   force =    -0.00001076   -0.00000311    0.01352141
     atom   43 type  1   force =     0.00001181   -0.00000626    0.01351825
     atom   44 type  1   force =    -0.00000557   -0.00000313    0.01351169
     atom   45 type  1   force =    -0.00011528    0.00000263    0.01357087
     atom   46 type  1   force =    -0.00000933    0.00000443    0.01351625
     atom   47 type  1   force =     0.00000519    0.00000621    0.01351339
     atom   48 type  1   force =     0.00001759    0.00000134    0.01351703
     atom   49 type  1   force =    -0.00000235    0.00001900   -0.00825092
     atom   50 type  1   force =     0.00000202    0.00001067   -0.00826224
     atom   51 type  1   force =    -0.00000028    0.00001664   -0.00825405
     atom   52 type  1   force =     0.00009953    0.00000341   -0.00831818
     atom   53 type  1   force =    -0.00000796    0.00000493   -0.00825971
     atom   54 type  1   force =     0.00000416   -0.00000613   -0.00826019
     atom   55 type  1   force =     0.00000350    0.00000372   -0.00825541
     atom   56 type  1   force =     0.00009946   -0.00000291   -0.00830929
     atom   57 type  1   force =    -0.00000790   -0.00000047   -0.00825918
     atom   58 type  1   force =     0.00000441    0.00000698   -0.00825585
     atom   59 type  1   force =     0.00000283    0.00000094   -0.00825424
     atom   60 type  1   force =     0.00009800    0.00001008   -0.00831044
     atom   61 type  1   force =    -0.00000548   -0.00002086   -0.00825556
     atom   62 type  1   force =     0.00000085   -0.00001252   -0.00825094
     atom   63 type  1   force =     0.00000011   -0.00001648   -0.00824917
     atom   64 type  1   force =     0.00010222   -0.00000901   -0.00831965

     Total force =     0.089604     Total SCF correction =     0.001268
     Energy error            =      6.5E-03
     Gradient error          =      1.4E-02

     number of scf cycles    =   2
     number of bfgs steps    =   1

     energy   old            =    -502.7053656340 Ry
     energy   new            =    -502.6988597197 Ry

     CASE: energy  _new > energy  _old


 %%%%%%%%%%%%%%%%%%%%%%%%%%%%%%%%%%%%%%%%%%%%%%%%%%%%%%%%%%%%%%%%%%%%%%%%%%%%%%
     Error in routine bfgs (1):
     dE0s is positive which should never happen
 %%%%%%%%%%%%%%%%%%%%%%%%%%%%%%%%%%%%%%%%%%%%%%%%%%%%%%%%%%%%%%%%%%%%%%%%%%%%%%

     stopping ...
