
     Program PWSCF v.6.7MaX starts on  8Apr2024 at 19:27:53 

     This program is part of the open-source Quantum ESPRESSO suite
     for quantum simulation of materials; please cite
         "P. Giannozzi et al., J. Phys.:Condens. Matter 21 395502 (2009);
         "P. Giannozzi et al., J. Phys.:Condens. Matter 29 465901 (2017);
          URL http://www.quantum-espresso.org", 
     in publications or presentations arising from this work. More details at
     http://www.quantum-espresso.org/quote

     Parallel version (MPI), running on     4 processors

     MPI processes distributed on     1 nodes
     R & G space division:  proc/nbgrp/npool/nimage =       4
     Waiting for input...
     Reading input from standard input

     Current dimensions of program PWSCF are:
     Max number of different atomic species (ntypx) = 10
     Max number of k-points (npk) =  40000
     Max angular momentum in pseudopotentials (lmaxx) =  3

     File ./silicon.update deleted, as requested

     File ./silicon.bfgs deleted, as requested

     Subspace diagonalization in iterative solution of the eigenvalue problem:
     one sub-group per band group will be used
     scalapack distributed-memory algorithm (size of sub-group:  2*  2 procs)


     Parallelization info
     --------------------
     sticks:   dense  smooth     PW     G-vecs:    dense   smooth      PW
     Min        2319    2319    612               280370   280370   38034
     Max        2321    2321    613               280373   280373   38039
     Sum        9281    9281   2449              1121485  1121485  152141



     bravais-lattice index     =            0
     lattice parameter (alat)  =      28.8637  a.u.
     unit-cell volume          =   40076.7353 (a.u.)^3
     number of atoms/cell      =           64
     number of atomic types    =            1
     number of electrons       =       256.00
     number of Kohn-Sham states=          128
     kinetic-energy cutoff     =      35.0000  Ry
     charge density cutoff     =     140.0000  Ry
     scf convergence threshold =      1.0E-06
     mixing beta               =       0.7000
     number of iterations used =            8  plain     mixing
     energy convergence thresh.=      1.0E-04
     force convergence thresh. =      1.0E-03
     Exchange-correlation= SLA  PZ   NOGX NOGC
                           (   1   1   0   0   0   0   0)
     nstep                     =           50


     celldm(1)=  28.863677  celldm(2)=   0.000000  celldm(3)=   0.000000
     celldm(4)=   0.000000  celldm(5)=   0.000000  celldm(6)=   0.000000

     crystal axes: (cart. coord. in units of alat)
               a(1) = (   1.000000   0.000000   0.000000 )  
               a(2) = (   0.000000   1.000000   0.000000 )  
               a(3) = (   0.000000   0.000000   1.666623 )  

     reciprocal axes: (cart. coord. in units 2 pi/alat)
               b(1) = (  1.000000  0.000000  0.000000 )  
               b(2) = (  0.000000  1.000000  0.000000 )  
               b(3) = (  0.000000  0.000000  0.600016 )  


     PseudoPot. # 1 for Si read from file:
     ./Si.pz-vbc.UPF
     MD5 check sum: 9f25e6ff280f3123e9b3a84715b2e9c9
     Pseudo is Norm-conserving, Zval =  4.0
     Generated by new atomic code, or converted to UPF format
     Using radial grid of  431 points,  2 beta functions with: 
                l(1) =   0
                l(2) =   1

     atomic species   valence    mass     pseudopotential
        Si             4.00    28.08600     Si( 1.00)

     No symmetry found



   Cartesian axes

     site n.     atom                  positions (alat units)
         1           Si  tau(   1) = (   0.0000000   0.1443630   0.6547073  )
         2           Si  tau(   2) = (   0.2499673   0.1443630   0.6547073  )
         3           Si  tau(   3) = (   0.5000000   0.1443630   0.6547073  )
         4           Si  tau(   4) = (   0.7499673   0.1443630   0.6547073  )
         5           Si  tau(   5) = (   0.1249836   0.3608092   0.6547073  )
         6           Si  tau(   6) = (   0.3750164   0.3608092   0.6547073  )
         7           Si  tau(   7) = (   0.6249836   0.3608092   0.6547073  )
         8           Si  tau(   8) = (   0.8749509   0.3608092   0.6547073  )
         9           Si  tau(   9) = (   0.2499673   0.5773209   0.6547073  )
        10           Si  tau(  10) = (   0.5000000   0.5773209   0.6547073  )
        11           Si  tau(  11) = (   0.7499673   0.5773209   0.6547073  )
        12           Si  tau(  12) = (   1.0000000   0.5773209   0.6547073  )
        13           Si  tau(  13) = (   0.3750164   0.7938327   0.6547073  )
        14           Si  tau(  14) = (   0.6249836   0.7938327   0.6547073  )
        15           Si  tau(  15) = (   0.8749509   0.7938327   0.6547073  )
        16           Si  tau(  16) = (   1.1249836   0.7938327   0.6547073  )
        17           Si  tau(  17) = (   0.0000000   0.1443630   0.8077779  )
        18           Si  tau(  18) = (   0.2499673   0.1443630   0.8077779  )
        19           Si  tau(  19) = (   0.5000000   0.1443630   0.8077779  )
        20           Si  tau(  20) = (   0.7499673   0.1443630   0.8077779  )
        21           Si  tau(  21) = (   0.1249836   0.3608092   0.8077779  )
        22           Si  tau(  22) = (   0.3750164   0.3608092   0.8077779  )
        23           Si  tau(  23) = (   0.6249836   0.3608092   0.8077779  )
        24           Si  tau(  24) = (   0.8749509   0.3608092   0.8077779  )
        25           Si  tau(  25) = (   0.2499673   0.5773209   0.8077779  )
        26           Si  tau(  26) = (   0.5000000   0.5773209   0.8077779  )
        27           Si  tau(  27) = (   0.7499673   0.5773209   0.8077779  )
        28           Si  tau(  28) = (   1.0000000   0.5773209   0.8077779  )
        29           Si  tau(  29) = (   0.3750164   0.7938327   0.8077779  )
        30           Si  tau(  30) = (   0.6249836   0.7938327   0.8077779  )
        31           Si  tau(  31) = (   0.8749509   0.7938327   0.8077779  )
        32           Si  tau(  32) = (   1.1249836   0.7938327   0.8077779  )
        33           Si  tau(  33) = (   0.0000000   0.0000000   0.8588451  )
        34           Si  tau(  34) = (   0.2499673   0.0000000   0.8588451  )
        35           Si  tau(  35) = (   0.5000000   0.0000000   0.8588451  )
        36           Si  tau(  36) = (   0.7499673   0.0000000   0.8588451  )
        37           Si  tau(  37) = (   0.1249836   0.2165117   0.8588451  )
        38           Si  tau(  38) = (   0.3750164   0.2165117   0.8588451  )
        39           Si  tau(  39) = (   0.6249836   0.2165117   0.8588451  )
        40           Si  tau(  40) = (   0.8749509   0.2165117   0.8588451  )
        41           Si  tau(  41) = (   0.2499673   0.4330234   0.8588451  )
        42           Si  tau(  42) = (   0.5000000   0.4330234   0.8588451  )
        43           Si  tau(  43) = (   0.7499673   0.4330234   0.8588451  )
        44           Si  tau(  44) = (   1.0000000   0.4330234   0.8588451  )
        45           Si  tau(  45) = (   0.3750164   0.6494697   0.8588451  )
        46           Si  tau(  46) = (   0.6249836   0.6494697   0.8588451  )
        47           Si  tau(  47) = (   0.8749509   0.6494697   0.8588451  )
        48           Si  tau(  48) = (   1.1249836   0.6494697   0.8588451  )
        49           Si  tau(  49) = (   0.0000000   0.0000000   1.0119157  )
        50           Si  tau(  50) = (   0.2499673   0.0000000   1.0119157  )
        51           Si  tau(  51) = (   0.5000000   0.0000000   1.0119157  )
        52           Si  tau(  52) = (   0.7499673   0.0000000   1.0119157  )
        53           Si  tau(  53) = (   0.1249836   0.2165117   1.0119157  )
        54           Si  tau(  54) = (   0.3750164   0.2165117   1.0119157  )
        55           Si  tau(  55) = (   0.6249836   0.2165117   1.0119157  )
        56           Si  tau(  56) = (   0.8749509   0.2165117   1.0119157  )
        57           Si  tau(  57) = (   0.2499673   0.4330234   1.0119157  )
        58           Si  tau(  58) = (   0.5000000   0.4330234   1.0119157  )
        59           Si  tau(  59) = (   0.7499673   0.4330234   1.0119157  )
        60           Si  tau(  60) = (   1.0000000   0.4330234   1.0119157  )
        61           Si  tau(  61) = (   0.3750164   0.6494697   1.0119157  )
        62           Si  tau(  62) = (   0.6249836   0.6494697   1.0119157  )
        63           Si  tau(  63) = (   0.8749509   0.6494697   1.0119157  )
        64           Si  tau(  64) = (   1.1249836   0.6494697   1.0119157  )

     number of k points=     1
                       cart. coord. in units 2pi/alat
        k(    1) = (  -0.5000000  -0.5000000  -0.3000079), wk =   2.0000000

     Dense  grid:  1121485 G-vectors     FFT dimensions: ( 120, 120, 192)

     Estimated max dynamical RAM per process >     644.59 MB

     Estimated total dynamical RAM >       2.52 GB

     Initial potential from superposition of free atoms

     starting charge  255.96826, renormalised to  256.00000

     negative rho (up, down):  7.498E-05 0.000E+00
     Starting wfcs are  256 randomized atomic wfcs

     total cpu time spent up to now is       13.9 secs

     Self-consistent Calculation

     iteration #  1     ecut=    35.00 Ry     beta= 0.70
     Davidson diagonalization with overlap
     ethr =  1.00E-02,  avg # of iterations =  2.0

     total cpu time spent up to now is       33.9 secs

     total energy              =    -499.16341464 Ry
     estimated scf accuracy    <       2.91436202 Ry

     iteration #  2     ecut=    35.00 Ry     beta= 0.70
     Davidson diagonalization with overlap
     ethr =  1.14E-03,  avg # of iterations = 10.0

     total cpu time spent up to now is       62.9 secs

     total energy              =    -495.71788128 Ry
     estimated scf accuracy    <      30.35065025 Ry

     iteration #  3     ecut=    35.00 Ry     beta= 0.70
     Davidson diagonalization with overlap
     ethr =  1.14E-03,  avg # of iterations = 15.0

     total cpu time spent up to now is       91.9 secs

     total energy              =    -498.96182177 Ry
     estimated scf accuracy    <      18.21199310 Ry

     iteration #  4     ecut=    35.00 Ry     beta= 0.70
     Davidson diagonalization with overlap
     ethr =  1.14E-03,  avg # of iterations = 13.0

     total cpu time spent up to now is      114.7 secs

     total energy              =    -500.08528442 Ry
     estimated scf accuracy    <       1.95559507 Ry

     iteration #  5     ecut=    35.00 Ry     beta= 0.70
     Davidson diagonalization with overlap
     ethr =  7.64E-04,  avg # of iterations = 13.0

     total cpu time spent up to now is      133.3 secs

     total energy              =    -500.17964295 Ry
     estimated scf accuracy    <       1.67360139 Ry

     iteration #  6     ecut=    35.00 Ry     beta= 0.70
     Davidson diagonalization with overlap
     ethr =  6.54E-04,  avg # of iterations = 10.0

     total cpu time spent up to now is      149.9 secs

     total energy              =    -500.25804032 Ry
     estimated scf accuracy    <       0.65456470 Ry

     iteration #  7     ecut=    35.00 Ry     beta= 0.70
     Davidson diagonalization with overlap
     ethr =  2.56E-04,  avg # of iterations = 13.0

     total cpu time spent up to now is      167.1 secs

     total energy              =    -500.32346039 Ry
     estimated scf accuracy    <       0.26191665 Ry

     iteration #  8     ecut=    35.00 Ry     beta= 0.70
     Davidson diagonalization with overlap
     ethr =  1.02E-04,  avg # of iterations =  8.0

     total cpu time spent up to now is      186.2 secs

     total energy              =    -500.31492036 Ry
     estimated scf accuracy    <       0.70920052 Ry

     iteration #  9     ecut=    35.00 Ry     beta= 0.70
     Davidson diagonalization with overlap
     ethr =  1.02E-04,  avg # of iterations = 10.0

     total cpu time spent up to now is      203.2 secs

     total energy              =    -500.34078665 Ry
     estimated scf accuracy    <       0.21452769 Ry

     iteration # 10     ecut=    35.00 Ry     beta= 0.70
     Davidson diagonalization with overlap
     ethr =  8.38E-05,  avg # of iterations =  6.0

     total cpu time spent up to now is      217.8 secs

     total energy              =    -500.34531157 Ry
     estimated scf accuracy    <       0.08571427 Ry

     iteration # 11     ecut=    35.00 Ry     beta= 0.70
     Davidson diagonalization with overlap
     ethr =  3.35E-05,  avg # of iterations = 11.0

     total cpu time spent up to now is      235.6 secs

     total energy              =    -500.34320721 Ry
     estimated scf accuracy    <       0.08669620 Ry

     iteration # 12     ecut=    35.00 Ry     beta= 0.70
     Davidson diagonalization with overlap
     c_bands:  1 eigenvalues not converged
     ethr =  3.35E-05,  avg # of iterations = 20.0

     total cpu time spent up to now is      255.7 secs

     total energy              =    -500.34958134 Ry
     estimated scf accuracy    <       0.24085660 Ry

     iteration # 13     ecut=    35.00 Ry     beta= 0.70
     Davidson diagonalization with overlap
     c_bands:  2 eigenvalues not converged
     ethr =  3.35E-05,  avg # of iterations = 20.0

     total cpu time spent up to now is      275.4 secs

     total energy              =    -500.34016500 Ry
     estimated scf accuracy    <       0.55550084 Ry

     iteration # 14     ecut=    35.00 Ry     beta= 0.70
     Davidson diagonalization with overlap
     ethr =  3.35E-05,  avg # of iterations = 12.0

     total cpu time spent up to now is      292.7 secs

     total energy              =    -500.35116985 Ry
     estimated scf accuracy    <       0.23154801 Ry

     iteration # 15     ecut=    35.00 Ry     beta= 0.70
     Davidson diagonalization with overlap
     ethr =  3.35E-05,  avg # of iterations =  1.0

     total cpu time spent up to now is      305.5 secs

     total energy              =    -500.34985383 Ry
     estimated scf accuracy    <       0.20733815 Ry

     iteration # 16     ecut=    35.00 Ry     beta= 0.70
     Davidson diagonalization with overlap
     ethr =  3.35E-05,  avg # of iterations =  1.0

     total cpu time spent up to now is      318.3 secs

     total energy              =    -500.34922142 Ry
     estimated scf accuracy    <       0.19042985 Ry

     iteration # 17     ecut=    35.00 Ry     beta= 0.70
     Davidson diagonalization with overlap
     ethr =  3.35E-05,  avg # of iterations =  1.0

     negative rho (up, down):  9.272E-08 0.000E+00

     total cpu time spent up to now is      330.7 secs

     total energy              =    -500.32655871 Ry
     estimated scf accuracy    <       0.17814045 Ry

     iteration # 18     ecut=    35.00 Ry     beta= 0.70
     Davidson diagonalization with overlap
     ethr =  3.35E-05,  avg # of iterations = 19.0

     total cpu time spent up to now is      352.7 secs

     total energy              =    -500.36208103 Ry
     estimated scf accuracy    <       0.41490817 Ry

     iteration # 19     ecut=    35.00 Ry     beta= 0.70
     Davidson diagonalization with overlap
     ethr =  3.35E-05,  avg # of iterations = 10.0

     negative rho (up, down):  7.503E-07 0.000E+00

     total cpu time spent up to now is      368.8 secs

     total energy              =    -500.37820969 Ry
     estimated scf accuracy    <       0.19093206 Ry

     iteration # 20     ecut=    35.00 Ry     beta= 0.70
     Davidson diagonalization with overlap
     ethr =  3.35E-05,  avg # of iterations = 10.0

     negative rho (up, down):  3.194E-07 0.000E+00

     total cpu time spent up to now is      385.1 secs

     total energy              =    -500.37437542 Ry
     estimated scf accuracy    <       0.34775578 Ry

     iteration # 21     ecut=    35.00 Ry     beta= 0.70
     Davidson diagonalization with overlap
     ethr =  3.35E-05,  avg # of iterations =  7.0

     total cpu time spent up to now is      397.8 secs

     total energy              =    -500.35256326 Ry
     estimated scf accuracy    <       0.26403649 Ry

     iteration # 22     ecut=    35.00 Ry     beta= 0.70
     Davidson diagonalization with overlap
     ethr =  3.35E-05,  avg # of iterations = 12.0

     total cpu time spent up to now is      414.0 secs

     total energy              =    -500.35217486 Ry
     estimated scf accuracy    <       0.28080845 Ry

     iteration # 23     ecut=    35.00 Ry     beta= 0.70
     Davidson diagonalization with overlap
     ethr =  3.35E-05,  avg # of iterations = 10.0

     total cpu time spent up to now is      430.8 secs

     total energy              =    -500.34879169 Ry
     estimated scf accuracy    <       0.34708421 Ry

     iteration # 24     ecut=    35.00 Ry     beta= 0.70
     Davidson diagonalization with overlap
     ethr =  3.35E-05,  avg # of iterations =  7.0

     total cpu time spent up to now is      444.3 secs

     total energy              =    -500.35774911 Ry
     estimated scf accuracy    <       0.11922027 Ry

     iteration # 25     ecut=    35.00 Ry     beta= 0.70
     Davidson diagonalization with overlap
     ethr =  3.35E-05,  avg # of iterations =  1.0

     total cpu time spent up to now is      454.8 secs

     total energy              =    -500.35849220 Ry
     estimated scf accuracy    <       0.09768742 Ry

     iteration # 26     ecut=    35.00 Ry     beta= 0.70
     Davidson diagonalization with overlap
     ethr =  3.35E-05,  avg # of iterations =  1.0

     negative rho (up, down):  5.649E-07 0.000E+00

     total cpu time spent up to now is      465.5 secs

     total energy              =    -500.33506169 Ry
     estimated scf accuracy    <       0.08890835 Ry

     iteration # 27     ecut=    35.00 Ry     beta= 0.70
     Davidson diagonalization with overlap
     c_bands:  2 eigenvalues not converged
     ethr =  3.35E-05,  avg # of iterations = 20.0

     total cpu time spent up to now is      486.9 secs

     total energy              =    -500.33759673 Ry
     estimated scf accuracy    <       1.52181117 Ry

     iteration # 28     ecut=    35.00 Ry     beta= 0.70
     Davidson diagonalization with overlap
     c_bands:  1 eigenvalues not converged
     ethr =  3.35E-05,  avg # of iterations = 20.0

     total cpu time spent up to now is      506.1 secs

     total energy              =    -500.34439174 Ry
     estimated scf accuracy    <       0.53608285 Ry

     iteration # 29     ecut=    35.00 Ry     beta= 0.70
     Davidson diagonalization with overlap
     ethr =  3.35E-05,  avg # of iterations = 11.0

     total cpu time spent up to now is      523.8 secs

     total energy              =    -500.34212036 Ry
     estimated scf accuracy    <       0.46745803 Ry

     iteration # 30     ecut=    35.00 Ry     beta= 0.70
     Davidson diagonalization with overlap
     ethr =  3.35E-05,  avg # of iterations = 13.0

     total cpu time spent up to now is      538.0 secs

     total energy              =    -500.34802156 Ry
     estimated scf accuracy    <       0.19576747 Ry

     iteration # 31     ecut=    35.00 Ry     beta= 0.70
     Davidson diagonalization with overlap
     ethr =  3.35E-05,  avg # of iterations = 10.0

     total cpu time spent up to now is      551.7 secs

     total energy              =    -500.34722497 Ry
     estimated scf accuracy    <       0.20609500 Ry

     iteration # 32     ecut=    35.00 Ry     beta= 0.70
     Davidson diagonalization with overlap
     ethr =  3.35E-05,  avg # of iterations = 18.0

     total cpu time spent up to now is      565.5 secs

     total energy              =    -500.35005102 Ry
     estimated scf accuracy    <       0.20271656 Ry

     iteration # 33     ecut=    35.00 Ry     beta= 0.70
     Davidson diagonalization with overlap
     ethr =  3.35E-05,  avg # of iterations =  2.0

     total cpu time spent up to now is      576.7 secs

     total energy              =    -500.34755258 Ry
     estimated scf accuracy    <       0.14944406 Ry

     iteration # 34     ecut=    35.00 Ry     beta= 0.70
     Davidson diagonalization with overlap
     ethr =  3.35E-05,  avg # of iterations =  1.0

     total cpu time spent up to now is      587.3 secs

     total energy              =    -500.34332239 Ry
     estimated scf accuracy    <       0.12240423 Ry

     iteration # 35     ecut=    35.00 Ry     beta= 0.70
     Davidson diagonalization with overlap
     ethr =  3.35E-05,  avg # of iterations =  2.0

     negative rho (up, down):  1.407E-08 0.000E+00

     total cpu time spent up to now is      598.6 secs

     total energy              =    -500.31722624 Ry
     estimated scf accuracy    <       0.08469099 Ry

     iteration # 36     ecut=    35.00 Ry     beta= 0.70
     Davidson diagonalization with overlap
     ethr =  3.31E-05,  avg # of iterations = 18.0

     total cpu time spent up to now is      620.8 secs

     total energy              =    -500.36262667 Ry
     estimated scf accuracy    <       1.71202998 Ry

     iteration # 37     ecut=    35.00 Ry     beta= 0.70
     Davidson diagonalization with overlap
     ethr =  3.31E-05,  avg # of iterations = 15.0

     total cpu time spent up to now is      637.8 secs

     total energy              =    -500.36343658 Ry
     estimated scf accuracy    <       0.70888709 Ry

     iteration # 38     ecut=    35.00 Ry     beta= 0.70
     Davidson diagonalization with overlap
     c_bands:  1 eigenvalues not converged
     ethr =  3.31E-05,  avg # of iterations = 20.0

     total cpu time spent up to now is      656.8 secs

     total energy              =    -500.34554836 Ry
     estimated scf accuracy    <       0.76220673 Ry

     iteration # 39     ecut=    35.00 Ry     beta= 0.70
     Davidson diagonalization with overlap
     ethr =  3.31E-05,  avg # of iterations = 12.0

     total cpu time spent up to now is      673.4 secs

     total energy              =    -500.36144409 Ry
     estimated scf accuracy    <       0.22924243 Ry

     iteration # 40     ecut=    35.00 Ry     beta= 0.70
     Davidson diagonalization with overlap
     ethr =  3.31E-05,  avg # of iterations =  2.0

     total cpu time spent up to now is      684.7 secs

     total energy              =    -500.35836463 Ry
     estimated scf accuracy    <       0.18647301 Ry

     iteration # 41     ecut=    35.00 Ry     beta= 0.70
     Davidson diagonalization with overlap
     ethr =  3.31E-05,  avg # of iterations =  1.0

     total cpu time spent up to now is      695.5 secs

     total energy              =    -500.35831119 Ry
     estimated scf accuracy    <       0.15924608 Ry

     iteration # 42     ecut=    35.00 Ry     beta= 0.70
     Davidson diagonalization with overlap
     ethr =  3.31E-05,  avg # of iterations =  1.0

     total cpu time spent up to now is      706.2 secs

     total energy              =    -500.35744708 Ry
     estimated scf accuracy    <       0.14362938 Ry

     iteration # 43     ecut=    35.00 Ry     beta= 0.70
     Davidson diagonalization with overlap
     ethr =  3.31E-05,  avg # of iterations =  1.0

     total cpu time spent up to now is      716.9 secs

     total energy              =    -500.35478132 Ry
     estimated scf accuracy    <       0.12929035 Ry

     iteration # 44     ecut=    35.00 Ry     beta= 0.70
     Davidson diagonalization with overlap
     ethr =  3.31E-05,  avg # of iterations =  1.0

     negative rho (up, down):  8.765E-06 0.000E+00

     total cpu time spent up to now is      727.3 secs

     total energy              =    -500.33831990 Ry
     estimated scf accuracy    <       0.10401459 Ry

     iteration # 45     ecut=    35.00 Ry     beta= 0.70
     Davidson diagonalization with overlap
     ethr =  3.31E-05,  avg # of iterations = 17.0

     negative rho (up, down):  1.859E-08 0.000E+00

     total cpu time spent up to now is      745.3 secs

     total energy              =    -500.36748196 Ry
     estimated scf accuracy    <       0.56372830 Ry

     iteration # 46     ecut=    35.00 Ry     beta= 0.70
     Davidson diagonalization with overlap
     ethr =  3.31E-05,  avg # of iterations = 16.0

     negative rho (up, down):  8.141E-06 0.000E+00

     total cpu time spent up to now is      763.5 secs

     total energy              =    -500.35453087 Ry
     estimated scf accuracy    <       0.83033437 Ry

     iteration # 47     ecut=    35.00 Ry     beta= 0.70
     Davidson diagonalization with overlap
     ethr =  3.31E-05,  avg # of iterations = 20.0

     negative rho (up, down):  2.316E-06 0.000E+00

     total cpu time spent up to now is      781.6 secs

     total energy              =    -500.35768973 Ry
     estimated scf accuracy    <       0.63100738 Ry

     iteration # 48     ecut=    35.00 Ry     beta= 0.70
     Davidson diagonalization with overlap
     ethr =  3.31E-05,  avg # of iterations = 10.0

     negative rho (up, down):  2.333E-06 0.000E+00

     total cpu time spent up to now is      795.9 secs

     total energy              =    -500.36452177 Ry
     estimated scf accuracy    <       0.43571413 Ry

     iteration # 49     ecut=    35.00 Ry     beta= 0.70
     Davidson diagonalization with overlap
     ethr =  3.31E-05,  avg # of iterations =  2.0

     negative rho (up, down):  4.992E-07 0.000E+00

     total cpu time spent up to now is      807.3 secs

     total energy              =    -500.34007564 Ry
     estimated scf accuracy    <       0.39233890 Ry

     iteration # 50     ecut=    35.00 Ry     beta= 0.70
     Davidson diagonalization with overlap
     ethr =  3.31E-05,  avg # of iterations = 17.0

     total cpu time spent up to now is      824.1 secs

     total energy              =    -500.35506522 Ry
     estimated scf accuracy    <       0.31801544 Ry

     iteration # 51     ecut=    35.00 Ry     beta= 0.70
     Davidson diagonalization with overlap
     ethr =  3.31E-05,  avg # of iterations =  3.0

     total cpu time spent up to now is      835.8 secs

     total energy              =    -500.35258966 Ry
     estimated scf accuracy    <       0.27064855 Ry

     iteration # 52     ecut=    35.00 Ry     beta= 0.70
     Davidson diagonalization with overlap
     ethr =  3.31E-05,  avg # of iterations =  1.0

     total cpu time spent up to now is      846.5 secs

     total energy              =    -500.34330412 Ry
     estimated scf accuracy    <       0.22798540 Ry

     iteration # 53     ecut=    35.00 Ry     beta= 0.70
     Davidson diagonalization with overlap
     c_bands:  1 eigenvalues not converged
     ethr =  3.31E-05,  avg # of iterations = 20.0

     negative rho (up, down):  2.009E-08 0.000E+00

     total cpu time spent up to now is      860.3 secs

     total energy              =    -500.34897430 Ry
     estimated scf accuracy    <       0.08852220 Ry

     iteration # 54     ecut=    35.00 Ry     beta= 0.70
     Davidson diagonalization with overlap
     ethr =  3.31E-05,  avg # of iterations = 19.0

     total cpu time spent up to now is      881.5 secs

     total energy              =    -500.34880313 Ry
     estimated scf accuracy    <       1.32305677 Ry

     iteration # 55     ecut=    35.00 Ry     beta= 0.70
     Davidson diagonalization with overlap
     c_bands:  1 eigenvalues not converged
     ethr =  3.31E-05,  avg # of iterations = 20.0

     total cpu time spent up to now is      897.4 secs

     total energy              =    -500.35531491 Ry
     estimated scf accuracy    <       0.37585524 Ry

     iteration # 56     ecut=    35.00 Ry     beta= 0.70
     Davidson diagonalization with overlap
     ethr =  3.31E-05,  avg # of iterations =  6.0

     total cpu time spent up to now is      909.5 secs

     total energy              =    -500.33932722 Ry
     estimated scf accuracy    <       0.25839447 Ry

     iteration # 57     ecut=    35.00 Ry     beta= 0.70
     Davidson diagonalization with overlap
     ethr =  3.31E-05,  avg # of iterations = 12.0

     total cpu time spent up to now is      927.3 secs

     total energy              =    -500.34236918 Ry
     estimated scf accuracy    <       0.42273034 Ry

     iteration # 58     ecut=    35.00 Ry     beta= 0.70
     Davidson diagonalization with overlap
     ethr =  3.31E-05,  avg # of iterations =  8.0

     total cpu time spent up to now is      942.0 secs

     total energy              =    -500.35640256 Ry
     estimated scf accuracy    <       0.07379570 Ry

     iteration # 59     ecut=    35.00 Ry     beta= 0.70
     Davidson diagonalization with overlap
     ethr =  2.88E-05,  avg # of iterations =  3.0

     total cpu time spent up to now is      953.4 secs

     total energy              =    -500.35547479 Ry
     estimated scf accuracy    <       0.06652816 Ry

     iteration # 60     ecut=    35.00 Ry     beta= 0.70
     Davidson diagonalization with overlap
     c_bands:  1 eigenvalues not converged
     ethr =  2.60E-05,  avg # of iterations = 20.0

     total cpu time spent up to now is      971.7 secs

     total energy              =    -500.33827432 Ry
     estimated scf accuracy    <       0.52071969 Ry

     iteration # 61     ecut=    35.00 Ry     beta= 0.70
     Davidson diagonalization with overlap
     c_bands:  2 eigenvalues not converged
     ethr =  2.60E-05,  avg # of iterations = 20.0

     total cpu time spent up to now is      988.4 secs

     total energy              =    -500.33227781 Ry
     estimated scf accuracy    <       0.06219398 Ry

     iteration # 62     ecut=    35.00 Ry     beta= 0.70
     Davidson diagonalization with overlap
     ethr =  2.43E-05,  avg # of iterations = 19.0

     total cpu time spent up to now is     1013.3 secs

     total energy              =    -500.19392867 Ry
     estimated scf accuracy    <       4.29077533 Ry

     iteration # 63     ecut=    35.00 Ry     beta= 0.70
     Davidson diagonalization with overlap
     ethr =  2.43E-05,  avg # of iterations = 16.0

     total cpu time spent up to now is     1039.4 secs

     total energy              =    -500.34038834 Ry
     estimated scf accuracy    <       0.27744103 Ry

     iteration # 64     ecut=    35.00 Ry     beta= 0.70
     Davidson diagonalization with overlap
     ethr =  2.43E-05,  avg # of iterations = 11.0

     total cpu time spent up to now is     1053.9 secs

     total energy              =    -500.35009208 Ry
     estimated scf accuracy    <       0.09490533 Ry

     iteration # 65     ecut=    35.00 Ry     beta= 0.70
     Davidson diagonalization with overlap
     ethr =  2.43E-05,  avg # of iterations =  2.0

     total cpu time spent up to now is     1064.9 secs

     total energy              =    -500.33943481 Ry
     estimated scf accuracy    <       0.07614194 Ry

     iteration # 66     ecut=    35.00 Ry     beta= 0.70
     Davidson diagonalization with overlap
     ethr =  2.43E-05,  avg # of iterations = 18.0

     total cpu time spent up to now is     1087.6 secs

     total energy              =    -500.27570921 Ry
     estimated scf accuracy    <       2.36737723 Ry

     iteration # 67     ecut=    35.00 Ry     beta= 0.70
     Davidson diagonalization with overlap
     ethr =  2.43E-05,  avg # of iterations = 14.0

     total cpu time spent up to now is     1107.8 secs

     total energy              =    -500.34736920 Ry
     estimated scf accuracy    <       0.20870917 Ry

     iteration # 68     ecut=    35.00 Ry     beta= 0.70
     Davidson diagonalization with overlap
     c_bands:  1 eigenvalues not converged
     ethr =  2.43E-05,  avg # of iterations = 20.0

     total cpu time spent up to now is     1122.8 secs

     total energy              =    -500.35050348 Ry
     estimated scf accuracy    <       0.05547274 Ry

     iteration # 69     ecut=    35.00 Ry     beta= 0.70
     Davidson diagonalization with overlap
     ethr =  2.17E-05,  avg # of iterations = 15.0

     total cpu time spent up to now is     1139.6 secs

     total energy              =    -500.34930056 Ry
     estimated scf accuracy    <       0.16153318 Ry

     iteration # 70     ecut=    35.00 Ry     beta= 0.70
     Davidson diagonalization with overlap
     ethr =  2.17E-05,  avg # of iterations =  8.0

     total cpu time spent up to now is     1152.7 secs

     total energy              =    -500.35312410 Ry
     estimated scf accuracy    <       0.05207540 Ry

     iteration # 71     ecut=    35.00 Ry     beta= 0.70
     Davidson diagonalization with overlap
     ethr =  2.03E-05,  avg # of iterations = 13.0

     total cpu time spent up to now is     1170.2 secs

     total energy              =    -500.34740193 Ry
     estimated scf accuracy    <       0.24388449 Ry

     iteration # 72     ecut=    35.00 Ry     beta= 0.70
     Davidson diagonalization with overlap
     ethr =  2.03E-05,  avg # of iterations = 11.0

     total cpu time spent up to now is     1184.9 secs

     total energy              =    -500.35512695 Ry
     estimated scf accuracy    <       0.06199485 Ry

     iteration # 73     ecut=    35.00 Ry     beta= 0.70
     Davidson diagonalization with overlap
     ethr =  2.03E-05,  avg # of iterations =  2.0

     total cpu time spent up to now is     1196.0 secs

     total energy              =    -500.35554007 Ry
     estimated scf accuracy    <       0.04325118 Ry

     iteration # 74     ecut=    35.00 Ry     beta= 0.70
     Davidson diagonalization with overlap
     ethr =  1.69E-05,  avg # of iterations =  1.0

     negative rho (up, down):  9.729E-06 0.000E+00

     total cpu time spent up to now is     1206.5 secs

     total energy              =    -500.33768092 Ry
     estimated scf accuracy    <       0.03752739 Ry

     iteration # 75     ecut=    35.00 Ry     beta= 0.70
     Davidson diagonalization with overlap
     c_bands:  2 eigenvalues not converged
     ethr =  1.47E-05,  avg # of iterations = 20.0

     total cpu time spent up to now is     1231.0 secs

     total energy              =    -500.29464350 Ry
     estimated scf accuracy    <       1.71898549 Ry

     iteration # 76     ecut=    35.00 Ry     beta= 0.70
     Davidson diagonalization with overlap
     ethr =  1.47E-05,  avg # of iterations = 19.0

     total cpu time spent up to now is     1255.0 secs

     total energy              =    -500.35083113 Ry
     estimated scf accuracy    <       0.27429039 Ry

     iteration # 77     ecut=    35.00 Ry     beta= 0.70
     Davidson diagonalization with overlap
     ethr =  1.47E-05,  avg # of iterations =  8.0

     total cpu time spent up to now is     1267.7 secs

     total energy              =    -500.35216918 Ry
     estimated scf accuracy    <       0.18332387 Ry

     iteration # 78     ecut=    35.00 Ry     beta= 0.70
     Davidson diagonalization with overlap
     c_bands:  1 eigenvalues not converged
     ethr =  1.47E-05,  avg # of iterations = 20.0

     total cpu time spent up to now is     1281.3 secs

     total energy              =    -500.35176996 Ry
     estimated scf accuracy    <       0.13989513 Ry

     iteration # 79     ecut=    35.00 Ry     beta= 0.70
     Davidson diagonalization with overlap
     ethr =  1.47E-05,  avg # of iterations = 18.0

     total cpu time spent up to now is     1294.5 secs

     total energy              =    -500.35295605 Ry
     estimated scf accuracy    <       0.09883966 Ry

     iteration # 80     ecut=    35.00 Ry     beta= 0.70
     Davidson diagonalization with overlap
     ethr =  1.47E-05,  avg # of iterations =  1.0

     total cpu time spent up to now is     1304.9 secs

     total energy              =    -500.35167424 Ry
     estimated scf accuracy    <       0.08999398 Ry

     iteration # 81     ecut=    35.00 Ry     beta= 0.70
     Davidson diagonalization with overlap
     ethr =  1.47E-05,  avg # of iterations =  1.0

     total cpu time spent up to now is     1315.2 secs

     total energy              =    -500.35142200 Ry
     estimated scf accuracy    <       0.08284236 Ry

     iteration # 82     ecut=    35.00 Ry     beta= 0.70
     Davidson diagonalization with overlap
     ethr =  1.47E-05,  avg # of iterations =  1.0

     total cpu time spent up to now is     1325.5 secs

     total energy              =    -500.35061720 Ry
     estimated scf accuracy    <       0.07919809 Ry

     iteration # 83     ecut=    35.00 Ry     beta= 0.70
     Davidson diagonalization with overlap
     ethr =  1.47E-05,  avg # of iterations =  1.0

     negative rho (up, down):  2.859E-06 0.000E+00

     total cpu time spent up to now is     1336.0 secs

     total energy              =    -500.33007883 Ry
     estimated scf accuracy    <       0.07312577 Ry

     iteration # 84     ecut=    35.00 Ry     beta= 0.70
     Davidson diagonalization with overlap
     c_bands:  1 eigenvalues not converged
     ethr =  1.47E-05,  avg # of iterations = 20.0

     negative rho (up, down):  1.892E-06 0.000E+00

     total cpu time spent up to now is     1359.0 secs

     total energy              =    -500.33761900 Ry
     estimated scf accuracy    <       1.42248308 Ry

     iteration # 85     ecut=    35.00 Ry     beta= 0.70
     Davidson diagonalization with overlap
     c_bands:  1 eigenvalues not converged
     ethr =  1.47E-05,  avg # of iterations = 20.0

     negative rho (up, down):  2.053E-06 0.000E+00

     total cpu time spent up to now is     1382.8 secs

     total energy              =    -500.33088770 Ry
     estimated scf accuracy    <       1.29297916 Ry

     iteration # 86     ecut=    35.00 Ry     beta= 0.70
     Davidson diagonalization with overlap
     ethr =  1.47E-05,  avg # of iterations = 17.0

     negative rho (up, down):  1.395E-08 0.000E+00

     total cpu time spent up to now is     1403.4 secs

     total energy              =    -500.33894934 Ry
     estimated scf accuracy    <       0.26603578 Ry

     iteration # 87     ecut=    35.00 Ry     beta= 0.70
     Davidson diagonalization with overlap
     ethr =  1.47E-05,  avg # of iterations = 18.0

     total cpu time spent up to now is     1425.1 secs

     total energy              =    -500.32607617 Ry
     estimated scf accuracy    <       0.85158532 Ry

     iteration # 88     ecut=    35.00 Ry     beta= 0.70
     Davidson diagonalization with overlap
     ethr =  1.47E-05,  avg # of iterations = 11.0

     total cpu time spent up to now is     1445.2 secs

     total energy              =    -500.35180961 Ry
     estimated scf accuracy    <       0.25686609 Ry

     iteration # 89     ecut=    35.00 Ry     beta= 0.70
     Davidson diagonalization with overlap
     ethr =  1.47E-05,  avg # of iterations =  8.0

     total cpu time spent up to now is     1460.4 secs

     total energy              =    -500.35836126 Ry
     estimated scf accuracy    <       0.07528062 Ry

     iteration # 90     ecut=    35.00 Ry     beta= 0.70
     Davidson diagonalization with overlap
     ethr =  1.47E-05,  avg # of iterations =  2.0

     total cpu time spent up to now is     1471.2 secs

     total energy              =    -500.35753691 Ry
     estimated scf accuracy    <       0.06051420 Ry

     iteration # 91     ecut=    35.00 Ry     beta= 0.70
     Davidson diagonalization with overlap
     ethr =  1.47E-05,  avg # of iterations =  1.0

     total cpu time spent up to now is     1481.8 secs

     total energy              =    -500.35789027 Ry
     estimated scf accuracy    <       0.05351447 Ry

     iteration # 92     ecut=    35.00 Ry     beta= 0.70
     Davidson diagonalization with overlap
     ethr =  1.47E-05,  avg # of iterations =  2.0

     total cpu time spent up to now is     1493.0 secs

     total energy              =    -500.34024724 Ry
     estimated scf accuracy    <       0.04957751 Ry

     iteration # 93     ecut=    35.00 Ry     beta= 0.70
     Davidson diagonalization with overlap
     ethr =  1.47E-05,  avg # of iterations = 17.0

     total cpu time spent up to now is     1514.7 secs

     total energy              =    -500.36146306 Ry
     estimated scf accuracy    <       0.72586839 Ry

     iteration # 94     ecut=    35.00 Ry     beta= 0.70
     Davidson diagonalization with overlap
     ethr =  1.47E-05,  avg # of iterations = 10.0

     total cpu time spent up to now is     1530.1 secs

     total energy              =    -500.35441235 Ry
     estimated scf accuracy    <       0.32437349 Ry

     iteration # 95     ecut=    35.00 Ry     beta= 0.70
     Davidson diagonalization with overlap
     c_bands:  1 eigenvalues not converged
     ethr =  1.47E-05,  avg # of iterations = 20.0

     total cpu time spent up to now is     1545.5 secs

     total energy              =    -500.34711887 Ry
     estimated scf accuracy    <       0.19056311 Ry

     iteration # 96     ecut=    35.00 Ry     beta= 0.70
     Davidson diagonalization with overlap
     c_bands:  2 eigenvalues not converged
     ethr =  1.47E-05,  avg # of iterations = 20.0

     total cpu time spent up to now is     1562.6 secs

     total energy              =    -500.34958401 Ry
     estimated scf accuracy    <       0.11553962 Ry

     iteration # 97     ecut=    35.00 Ry     beta= 0.70
     Davidson diagonalization with overlap
     ethr =  1.47E-05,  avg # of iterations = 17.0

     total cpu time spent up to now is     1578.4 secs

     total energy              =    -500.35152690 Ry
     estimated scf accuracy    <       0.07869554 Ry

     iteration # 98     ecut=    35.00 Ry     beta= 0.70
     Davidson diagonalization with overlap
     ethr =  1.47E-05,  avg # of iterations = 15.0

     total cpu time spent up to now is     1593.3 secs

     total energy              =    -500.35273523 Ry
     estimated scf accuracy    <       0.06409796 Ry

     iteration # 99     ecut=    35.00 Ry     beta= 0.70
     Davidson diagonalization with overlap
     ethr =  1.47E-05,  avg # of iterations =  3.0

     total cpu time spent up to now is     1605.2 secs

     total energy              =    -500.35308787 Ry
     estimated scf accuracy    <       0.03388650 Ry

     iteration #100     ecut=    35.00 Ry     beta= 0.70
     Davidson diagonalization with overlap
     ethr =  1.32E-05,  avg # of iterations =  2.0

     total cpu time spent up to now is     1616.1 secs

     total energy              =    -500.35268267 Ry
     estimated scf accuracy    <       0.02126997 Ry

     End of self-consistent calculation

     convergence NOT achieved after 100 iterations: stopping

     Writing output data file ./silicon.save/
     Message from routine punch:
     wavefunctions written to file

     init_run     :     13.35s CPU     13.85s WALL (       1 calls)
     electrons    :   1578.42s CPU   1602.35s WALL (       1 calls)

     Called by init_run:
     wfcinit      :     11.64s CPU     12.07s WALL (       1 calls)
     potinit      :      0.67s CPU      0.69s WALL (       1 calls)
     hinit0       :      0.62s CPU      0.64s WALL (       1 calls)

     Called by electrons:
     c_bands      :   1364.03s CPU   1386.45s WALL (     100 calls)
     sum_band     :    191.17s CPU    192.02s WALL (     100 calls)
     v_of_rho     :      9.26s CPU      9.31s WALL (     101 calls)
     mix_rho      :     12.95s CPU     13.44s WALL (     100 calls)

     Called by c_bands:
     init_us_2    :      8.09s CPU      8.31s WALL (     201 calls)
     cegterg      :   1354.67s CPU   1376.94s WALL (     100 calls)

     Called by *egterg:
     cdiaghg      :     18.60s CPU     18.68s WALL (    1167 calls)
     h_psi        :   1013.66s CPU   1024.56s WALL (    1168 calls)
     g_psi        :      2.54s CPU      2.55s WALL (    1067 calls)

     Called by h_psi:
     h_psi:calbec :     86.06s CPU     86.75s WALL (    1168 calls)
     vloc_psi     :    829.76s CPU    833.27s WALL (    1168 calls)
     add_vuspsi   :     93.74s CPU     94.10s WALL (    1168 calls)

     General routines
     calbec       :     86.06s CPU     86.74s WALL (    1168 calls)
     fft          :      8.10s CPU      8.15s WALL (     303 calls)
     ffts         :      2.21s CPU      2.22s WALL (     100 calls)
     fftw         :    838.79s CPU    842.21s WALL (   84180 calls)
     davcio       :      0.00s CPU      0.07s WALL (      19 calls)

     Parallel routines
     fft_scatt_xy :    197.68s CPU    198.42s WALL (   84583 calls)
     fft_scatt_yz :    178.42s CPU    179.33s WALL (   84583 calls)

     PWSCF        :  26m31.86s CPU  26m56.39s WALL


   This run was terminated on:  19:54:49   8Apr2024            

=------------------------------------------------------------------------------=
   JOB DONE.
=------------------------------------------------------------------------------=
